          4
Energy: -1.9019528588542962 Kcal/mole
 Kr    -0.4591474711    -0.3035302342     5.4236005492
 Kr    -3.3223928363     1.2564748899     2.9934014095
 Kr    -0.6215804189    -1.4003158618     1.5039948629
 Kr    -3.4975005613    -2.6594017040     4.0958045905
