          4
Energy: -1.5590085500715913 Kcal/mole
 Kr     4.6116192267     0.4571438811    -5.9019602073
 Kr     6.8399000820    -0.6209401667    -2.5614741771
 Kr     2.9873799931    -0.0689820632    -2.2428681960
 Kr     6.6771171468    -3.0041470731    -6.2561902062
          4
Energy: -0.9903155466499822 Kcal/mole
 Kr     0.8646419164    -4.7417278528     0.4209963243
 Kr     2.4860723173    -7.0970630316     3.3731260764
 Kr     4.2858491185    -2.9523535125     1.8180664598
 Kr     4.6206460243     1.9628311328     0.6012611282
          4
Energy: -0.26526323813156966 Kcal/mole
 Kr    -3.7779278164     8.1680018795     6.9589117789
 Kr     0.2605302205    -1.4588628507    -5.1785156876
 Kr    -1.8902444540     1.9911052153    -2.9745614332
 Kr     2.6966799025     5.2096571758    -7.3871505135
          4
Energy: -1.4602601052107949 Kcal/mole
 Kr    -0.9216023313     1.4493685570    -7.8526000388
 Kr     2.0712083050    -0.8947907326    -6.0862198417
 Kr     5.2636303937     1.0391320072    -5.4211386120
 Kr     1.2819137360     2.8456637583    -4.6063241888
          4
Energy: -1.347537839288476 Kcal/mole
 Kr     3.7437925500     1.6839867622    -4.4334398118
 Kr     4.7114958340     6.6532456482    -7.1745767865
 Kr     6.6004266764     3.1369638737    -6.8778142591
 Kr     6.7691867168     5.1635134274    -3.0141084499
          4
Energy: -0.9830139750701927 Kcal/mole
 Kr     5.9597323779     5.9013563010    -1.6618387551
 Kr     2.0295893340     5.3671549646    -2.4105832907
 Kr    -1.8427233633     6.1211705847    -3.0916426206
 Kr     7.8486484186     3.7750946346     1.2520773279
          4
Energy: -1.7653671312642891 Kcal/mole
 Kr     0.2880479005     0.1867840771    -6.0368708525
 Kr     1.8359285131     2.2214093439    -2.7181699446
 Kr    -1.5030407281     3.3389570654    -4.5793376116
 Kr     2.6021143430     3.4633110326    -6.6676207226
          4
Energy: -1.853877922835518 Kcal/mole
 Kr     3.9111194319     3.4360754237    -4.3496418321
 Kr     5.0391170405     7.4420097368    -5.5946875419
 Kr     2.9678993335     4.7861940152    -8.0659171886
 Kr     6.8872262122     4.2319265943    -7.1573832207
          4
Energy: -1.887623051060951 Kcal/mole
 Kr     3.3777173696     8.2135364885    -2.4670394785
 Kr     5.3991170599     6.4380356312    -5.5053154802
 Kr     2.6579408751     4.2927383420    -3.4215896598
 Kr     6.2458591140     5.2509871135    -1.8048484138
          4
Energy: -1.9017934535690644 Kcal/mole
 Kr     3.5436882764     8.1875627585    -2.4191213913
 Kr     5.5587835733     6.3812796812    -5.4640972329
 Kr     2.6853209772     4.3342571186    -3.4236354845
 Kr     6.2261540221     5.2468226128    -1.6198836024
