          4
Energy: -1.9017591462618788 Kcal/mole
 Kr    -2.6296584768     3.3521372477    -6.2709919537
 Kr    -1.3973191800     1.9858922624    -2.6473693949
 Kr    -4.1620301212     4.9471067522    -2.8618198612
 Kr    -5.1539965852     1.1492021430    -3.9749061075
