          4
Energy: -1.9018151742239253 Kcal/mole
 Kr    -6.1215322545     1.4347496608    -5.0674577861
 Kr    -4.4432901772     1.0846592791    -1.3849911185
 Kr    -7.6450922122    -1.2044000180    -2.3711659562
 Kr    -4.0428094662    -1.9268556390    -4.1051121806
