          4
Energy: -0.027244026447224654 Kcal/mole
 Kr    -2.9525723137    -2.1610113609     5.3528105906
 Kr    -4.3335813676    -2.4381917954    -5.3815828550
 Kr    -2.2822933313     3.9628894956     0.6044998232
 Kr     5.1009615423     0.9604781476    -4.5431349803
