          4
Energy: -0.1276972601561765 Kcal/mole
 Kr     1.4624863713     6.2842424029    -2.6614638894
 Kr     6.9208833383     2.9026788142     3.5833166386
 Kr     3.5980942974    -0.2235685567     7.8919071394
 Kr     5.9066185370    -4.4223529074     4.2874255803
          4
Energy: -0.06601842653452913 Kcal/mole
 Kr    -7.9617348547    -7.2831642326     7.3972242440
 Kr    -3.6997960226     4.9269788118     2.9326231231
 Kr    -7.9205180068     0.7491285731     2.4723356737
 Kr     7.3111244574    -1.2695265935    -4.6671197251
          4
Energy: -0.07170005575133531 Kcal/mole
 Kr    -4.1995739596    -4.3325114868     8.1347506089
 Kr     3.1009110629     3.2702961973    -6.5622017807
 Kr    -3.7403941894     3.5696745607    -6.7055861228
 Kr    -5.0935297465     7.0121343011    -1.5232403461
          4
Energy: -0.2521556209726051 Kcal/mole
 Kr    -7.2481278021    -3.5472015089    -3.5145395669
 Kr    -7.3394816487    -7.4483364100    -0.1586786777
 Kr     5.2647260497     5.8503842523     7.0587601065
 Kr    -2.3053945846    -5.4612439088     1.0212430125
          4
Energy: -0.6348622267580208 Kcal/mole
 Kr     2.4083049524    -4.4776761096    -3.8880836749
 Kr    -0.4133473761     5.4740919734    -4.1716547122
 Kr     1.9514036138    -7.8422442758    -6.0413051712
 Kr    -3.7883377636     3.4681172399    -2.8472539014
          4
Energy: -0.35148130646413916 Kcal/mole
 Kr    -3.4931816761     1.3558842181     3.5367753562
 Kr     7.7920327168     6.1842826931    -3.9842466838
 Kr     0.4502452407     2.6994824363     3.9694145197
 Kr     4.1399831805     0.4172089434    -2.3508657120
          4
Energy: -0.6091045505066615 Kcal/mole
 Kr     6.6104198040     6.2258655333    -5.0439295991
 Kr     0.1770315896    -7.1070108588     4.5106394959
 Kr     2.3241232287    -8.2091488076     7.6581268299
 Kr     1.6334588510    -6.1439187252     0.5341190316
          4
Energy: -1.7232897530019033 Kcal/mole
 Kr    -0.4645418582    -2.2991391458    -1.7385990910
 Kr    -2.9386540704    -3.5267347623     2.0289809826
 Kr     0.2957480612    -5.7780144201     0.4812315542
 Kr     0.9896384514    -1.7909219133     1.9709322553
          4
Energy: -1.8640968330061425 Kcal/mole
 Kr    -6.0911509764     1.6859891421    -5.0258649683
 Kr    -4.4872471797     1.0772527100    -1.3718249604
 Kr    -7.6450922122    -1.2044000180    -2.3711659562
 Kr    -3.9009953423    -1.8130587367    -4.0755220055
          4
Energy: -1.9018151742239253 Kcal/mole
 Kr    -6.1215322545     1.4347496608    -5.0674577861
 Kr    -4.4432901772     1.0846592791    -1.3849911185
 Kr    -7.6450922122    -1.2044000180    -2.3711659562
 Kr    -4.0428094662    -1.9268556390    -4.1051121806
