          4
Energy: -1.9017934535690644 Kcal/mole
 Kr     3.5436882764     8.1875627585    -2.4191213913
 Kr     5.5587835733     6.3812796812    -5.4640972329
 Kr     2.6853209772     4.3342571186    -3.4236354845
 Kr     6.2261540221     5.2468226128    -1.6198836024
