          2
Energy: -0.019999999991093427 Kcal/mole
 He     2.5974763983    -5.7413283355    -0.0750614696
 He     2.4768162338    -2.9846666665    -0.8608382667
