          2
Energy: -0.019999999989069147 Kcal/mole
 He     3.0278787297    -0.8561497518    -0.6975344712
 He     1.3142369033    -1.0211754276     1.5975666429
