          2
Energy: -4.2893253834005583E-5 Kcal/mole
 He    -1.7997316098    -0.0526607730    -4.1772831314
 He     1.2001219629    -2.0548383986     4.0322338192
          2
Energy: -1.25588314549519E-6 Kcal/mole
 He    -5.0045669444    -6.7209435680     0.2312295482
 He     3.6050652706     6.6757084852    -2.4741956888
          2
Energy: -2.4957641840209175E-6 Kcal/mole
 He     5.9039656219    -6.0056565593    -6.6617009075
 He     0.2917698784     6.6687628965    -2.7384871397
          2
Energy: -2.1218336447530227E-6 Kcal/mole
 He    -1.4051902395     6.7480641410    -3.0654897080
 He     4.6117421323    -2.6765514895     6.6319518172
          2
Energy: -6.225373532444499E-6 Kcal/mole
 He     1.0222248514     5.0254547513     3.5169327573
 He    -0.3664645978    -2.6925592931    -6.0499437042
          2
Energy: -0.0028729807108742234 Kcal/mole
 He    -4.0195359813    -4.6856761821    -2.4940856362
 He    -0.1317877729    -6.5621149057    -1.5365039973
          2
Energy: -2.3349499747764573E-4 Kcal/mole
 He    -7.4149647711     3.3182312792    -1.8847567422
 He    -2.6778797665    -1.1973446133    -3.5699856807
          2
Energy: -3.251991036616814E-6 Kcal/mole
 He     6.0163663531    -1.7638700452    -4.7612214451
 He    -6.5935332648     0.1225628165     0.4766962575
          2
Energy: -0.016414708707869007 Kcal/mole
 He     2.5541658651    -6.1201817654    -0.3402264005
 He     2.3115796623    -3.0402184771    -0.9271152305
          2
Energy: -0.019999999991093427 Kcal/mole
 He     2.5974763983    -5.7413283355    -0.0750614696
 He     2.4768162338    -2.9846666665    -0.8608382667
