          2
Energy: -0.019999999976404326 Kcal/mole
 He    -0.4726122276    -3.1101818696     5.1668920785
 He     0.9611101756    -1.6449057586     3.1597224188
