          2
Energy: -4.149293352189914E-6 Kcal/mole
 He     1.0647135943     6.4349830267    -2.9125682452
 He     4.3936137374    -4.0148531400     4.4968851847
          2
Energy: -7.411804431047996E-7 Kcal/mole
 He    -4.7862168537    -4.4554080936    -7.2819060295
 He     7.0005542946     3.6568788429     3.0293275873
          2
Energy: -2.7796827014338753E-6 Kcal/mole
 He     6.8467771260    -2.0550885659    -7.1735330762
 He    -5.0442760919     5.5942363722    -6.6269471282
          2
Energy: -2.012440077686744E-5 Kcal/mole
 He    -7.4381218546     5.6097098950    -1.7009512291
 He    -3.2085005655    -2.9203810209    -5.2831444124
          2
Energy: -2.9728406618625004E-4 Kcal/mole
 He     3.9804100176    -3.0749041505    -4.3156849018
 He     4.6515408149    -7.4936496458     0.3907564479
          2
Energy: -6.428825654397564E-5 Kcal/mole
 He     1.4830698332    -5.0260207194     5.1104891288
 He    -1.8875376239    -3.0807216434    -2.3128999609
          2
Energy: -8.17192904954599E-7 Kcal/mole
 He    -6.8131027387    -7.2611017855     6.3629911845
 He     7.4596892953    -3.4109980667    -2.7234093464
          2
Energy: -0.004341479910649994 Kcal/mole
 He     1.9753166966    -7.2947893089    -7.2390185922
 He    -2.1227996377    -7.1339573868    -6.9263846196
          2
Energy: -3.479836009192872E-5 Kcal/mole
 He     6.9934947924    -1.3806135740    -3.2723196475
 He     3.4717970386    -3.8042061002     4.9700171775
          2
Energy: -0.01999999997539385 Kcal/mole
 He     2.6673735276    -0.1529302020     1.3660496575
 He     3.2203597728    -2.2583950953     3.2348861869
