          2
Energy: -9.394502487307718E-4 Kcal/mole
 He     4.9779276663     4.9987390051     0.4627138409
 He     4.6615818428    -0.3207253236     0.9439384149
