          2
Energy: -0.01999999997539385 Kcal/mole
 He     2.6673735276    -0.1529302020     1.3660496575
 He     3.2203597728    -2.2583950953     3.2348861869
