          2
Energy: 6.337795685302016 Kcal/mole
 H     -7.0983915850    -7.0330457367    -7.0343309428
 H      7.0575979563     7.0594287749     7.0635617146
