          2
Energy: 6.356424973791583 Kcal/mole
 H     -7.2411658152    -6.8341190497    -7.1915339132
 H      7.1354280780     7.0102140321     7.0203738949
