          2
Energy: 19.88589104832206 Kcal/mole
 H     -2.9351757656    -2.4572804437    -3.8431643426
 H      2.1074797871     4.0972928766    -4.5544996508
