          2
Energy: 6.349182767136895 Kcal/mole
 H     -7.1738084687    -6.9035456114    -7.0933697874
 H      7.0088241153     7.0169523011     7.1376404948
