          2
Energy: 6.352136556150576 Kcal/mole
 H     -7.2680012397    -6.9410143729    -7.0100266647
 H      7.0674907318     7.0034168133     7.0734659963
