          6
Energy: -0.24597818191431303 Kcal/mole
 He     0.2484528019     1.4067326322     2.6238505001
 He    -2.9299922697    -0.0544982959    -0.5606899194
 He    -4.1509104291     0.0217120854     2.0346019542
 He    -2.2291122658     0.8966816144     3.9603552474
 He    -2.2023616219     1.9951361682     1.3010204254
 He    -1.4241477765    -0.7433520081     1.7644641070
