          6
Energy: -0.14021761775605363 Kcal/mole
 He     2.6773296930    -1.2382087255    -4.4565030328
 He    -2.9929567430    -3.6634918065     3.5337993600
 He    -2.6573003393    -2.8530641911     0.7990092214
 He    -3.3840930594    -5.5757768455     1.4230600596
 He     4.2497845957    -0.0538826269    -6.5435993803
 He    -0.7418135624    -4.6228897330     1.9954132742
