          6
Energy: -0.00260408885859489 Kcal/mole
 He     2.8541781114    -1.7874317574    -0.1267971516
 He    -4.6221275281    -5.0255859954    -3.2099916452
 He     5.0128749019     1.9115502867     5.2667301795
 He    -7.3783494204    -0.6498046631     4.5110395676
 He    -4.7834779368     5.1737997107    -2.7504806455
 He    -2.3922416916     1.1627728422    -1.0509365079
          6
Energy: -0.01263916698292076 Kcal/mole
 He    -5.9699862161    -6.0331626537    -3.6375855541
 He    -0.0113923067     5.3405434809    -5.4442141718
 He     3.2818979102     3.8468624930    -1.4608621165
 He     6.0116842967     3.5658089199     0.5841759782
 He    -5.6799135898     7.1967564053     5.9093878912
 He     3.2362380750    -0.6154187626     6.2361900771
          6
Energy: -0.0144058886652899 Kcal/mole
 He    -7.3870549282    -0.2222574976     5.2440253746
 He    -4.6998988943     1.4704297281     4.2938767847
 He    -0.5350846587     5.8966745618    -0.5219107900
 He     5.1080431751     7.4842357835    -6.1317584033
 He    -6.3864014881     6.8746845853     2.6931715876
 He     2.1728808082    -4.2121961651    -1.7687672658
          6
Energy: -0.004771542139335444 Kcal/mole
 He    -6.7130854179    -6.2331627893    -3.0835585810
 He    -2.8066845742    -3.4452992882     4.8998859105
 He     0.7249078992    -1.9775224132     7.0246942355
 He     1.5329834065    -5.8203481225    -4.7695616435
 He     3.6741977745    -2.3060644212     2.8614446219
 He     0.4944254336     4.3870448147    -1.6332484914
          6
Energy: -0.017264616403415138 Kcal/mole
 He    -5.3649733360    -5.0419337042    -0.5479911287
 He     2.0339460696     4.6276329794     3.8556051597
 He    -4.8483935685    -0.6069777402     4.5770008114
 He     0.8299526003     6.2122271658     1.4149731073
 He     7.3282002952     5.3313602280    -3.2678285396
 He     0.7496156717    -5.2259776938    -0.9250620481
          6
Energy: -0.00535062111281777 Kcal/mole
 He     0.5755763890     3.4398109992    -0.3083966627
 He    -6.3689749219     6.4798953801     5.5782387165
 He     0.2712767748     0.0399699015    -2.9460473048
 He     4.0744583987    -2.0732079289    -5.2101889089
 He     5.5442002063     5.5280682595    -5.6856310887
 He    -1.4019506347    -5.9359927061     4.2178702738
          6
Energy: -0.008890783611116176 Kcal/mole
 He     4.2676188763     3.6336515302     6.6890429436
 He     0.5297237617     5.7387419654     5.8290691512
 He     0.7628009720     0.8135968495     3.9180942768
 He     3.1515488956    -5.3233832557     5.7791998670
 He    -3.7021324286    -6.0385171616    -4.7747750070
 He     5.9389247195    -2.2293255218     4.2056085863
          6
Energy: -0.02268465267607857 Kcal/mole
 He     4.4015921756     7.4439384698     1.3078681607
 He     0.7558817736     5.4976387166     0.5294428526
 He     6.5906488257     6.8845958487     2.4653408221
 He     7.1788624152     5.1584784569     4.6508635304
 He     4.4833278414    -0.3888275119    -7.2360820747
 He     1.4789048618     6.2939416103    -7.0015887528
          6
Energy: -0.02029776024534759 Kcal/mole
 He     7.0760316284    -3.3223056457     2.3140376577
 He     4.7509663709     7.3485497004    -5.5935884887
 He    -1.4426424011    -2.7764414924    -1.1058550371
 He    -2.4111478532    -7.3429563639     4.7360724634
 He    -3.8511032508     3.2667034024     0.8505255035
 He     7.2851600786    -3.4058803241    -0.5987319053
          6
Energy: -0.24593773879122655 Kcal/mole
 He     0.8168586247    -2.1622194324     2.5744215650
 He    -3.1570517225    -1.0658450478     0.2626090544
 He    -1.3523982793    -0.3150308883     2.3325263981
 He    -0.4102440931    -1.7617900804     0.0381641314
 He    -1.2177837179     0.9892729676    -0.2116940088
 He     1.1922366914     0.3287244905     1.1662821502
