          4
Energy: 27.471669958517385 Kcal/mole
 H      7.4994544886     6.5741179941    -7.4999953128
 F      7.4642011940     7.4904135668    -7.4930218840
 H     -7.4995077164    -7.4998090155     7.4856005382
 F     -7.4753318601    -7.4763848238     6.5692186117
