          4
Energy: 27.510380570821194 Kcal/mole
 H      7.4834605900     7.4996691413    -7.4999432265
 F      6.5734806250     7.4072743495    -7.4344553201
 H     -7.4993914222    -7.4999942526     6.5786058922
 F     -7.4528358034    -7.4830390254     7.4942663613
