          4
Energy: 27.620963757155465 Kcal/mole
 H      7.4998502105     7.4935020024    -7.4998868273
 F      6.9281661459     6.7803678168    -7.4256846472
 H     -7.4997105768    -6.5935297848     7.4986182716
 F     -7.4745096804    -7.4995967459     7.3597061524
