          4
Energy: 27.814408855836547 Kcal/mole
 H      6.9855223960     7.4713228535    -7.4768339024
 F      7.4918190047     6.8189472162    -7.0781375619
 H     -6.5222683288    -7.4577698531     7.4744065408
 F     -7.4202163619    -7.4415596491     7.2891619481
          4
Energy: 27.877568639383778 Kcal/mole
 H      7.4539059327     7.3279650755    -7.3872495088
 F      7.4134461212     6.4145974217    -7.4580416870
 H     -7.3075772129    -7.4773223742     7.4845147717
 F     -7.3510239768    -6.8826636652     6.7878208658
          4
Energy: 27.713912194150435 Kcal/mole
 H      7.4948949507     6.5701821547    -7.4605748138
 F      7.3919451495     7.4806617218    -7.4242802373
 H     -7.4469526681    -7.4458130765     7.4444012464
 F     -7.4267758530    -7.0627033476     6.6115093976
          4
Energy: 27.928335478748256 Kcal/mole
 H      6.3884783348     7.4604356782    -7.3027253653
 F      7.2824182329     7.3052464325    -7.4356793290
 H     -7.2824868826    -6.9919204401     7.4745708944
 F     -7.4945899530    -7.4488218745     6.7083187383
          4
Energy: 27.78511967581674 Kcal/mole
 H      7.2487280801     7.3781758929    -6.5823254743
 F      7.3884144341     7.3699230984    -7.4885862612
 H     -7.4022512470    -7.4866516829     7.3589453675
 F     -7.3779299264    -7.4876941944     6.4422685506
          4
Energy: 27.65313970423928 Kcal/mole
 H      7.4316437807     7.4864060525    -6.5501924901
 F      7.3548140098     7.4607050128    -7.4636067679
 H     -7.3962327768    -7.4696404107     7.4897985415
 F     -7.2796944052    -7.4640888593     6.5802508582
          4
Energy: 27.522473837992074 Kcal/mole
 H      7.4876743257     6.5826380248    -7.4652706264
 F      7.4697830840     7.4994621405    -7.4637071980
 H     -7.4194105705    -7.4985546868     7.4769077720
 F     -7.4618324985    -7.4779493531     6.5611213339
          4
Energy: 27.504716319621675 Kcal/mole
 H      7.4773449976     6.5829103548    -7.4906304534
 F      7.4703310310     7.4994476940    -7.4623619178
 H     -7.4715641123    -7.4540113232     7.4858546035
 F     -7.4768142037    -7.4788142855     6.5692051342
          4
Energy: 27.506197330855393 Kcal/mole
 H      7.4966161654     6.5739910398    -7.4911630710
 F      7.4643517605     7.4904203014    -7.4934904140
 H     -7.4711887091    -7.4208609069     7.4843227938
 F     -7.4768341180    -7.4805728385     6.5692863931
          4
Energy: 27.471669958517385 Kcal/mole
 H      7.4994544886     6.5741179941    -7.4999953128
 F      7.4642011940     7.4904135668    -7.4930218840
 H     -7.4995077164    -7.4998090155     7.4856005382
 F     -7.4753318601    -7.4763848238     6.5692186117
