          4
Energy: 27.68816310550847 Kcal/mole
 H      7.4527104402     7.4791580434    -7.4818564143
 F      7.3877492671     6.5911371301    -7.2625668715
 H     -7.4853284456    -6.5793735152     7.4209951547
 F     -7.4136328791    -7.4835653905     7.2861404236
          4
Energy: 27.721433367195836 Kcal/mole
 H      7.4687803728     7.4291565369    -7.4881316120
 F      7.4230833970     6.5574352581    -7.2072351923
 H     -7.4742626862    -7.4170898305     6.4782511262
 F     -7.4846628936    -7.4136417162     7.3951856638
          4
Energy: 27.571921803190058 Kcal/mole
 H      7.4162211711     7.4689669078    -7.4714631829
 F      7.4871323277     6.5587466872    -7.3856741516
 H     -7.4425568766    -6.5718424804     7.4820228277
 F     -7.4432837313    -7.4886667033     7.4640835981
          4
Energy: 27.729961954116483 Kcal/mole
 H      7.2430287059     7.4847495761    -7.4948089409
 F      7.4935695432     6.6027267693    -7.4823969655
 H     -7.3568330080    -6.5619024530     7.4078491436
 F     -7.2914663918    -7.4689911078     7.2903485995
          4
Energy: 27.586476821668867 Kcal/mole
 H      7.4940558843     7.4835138891    -7.4879812407
 F      7.4104410516     6.5703737102    -7.4965002359
 H     -7.4475263745    -7.4774512128     6.6344990146
 F     -7.4935817442    -7.1618334971     7.4942393012
          4
Energy: 27.636768593838543 Kcal/mole
 H      7.4969980398     7.4827338506    -7.4653830360
 F      7.4102849770     6.5704150894    -7.4976990185
 H     -7.3773830214    -7.4441557906     6.5732502850
 F     -7.4093815586    -7.2952836466     7.4775191489
          4
Energy: 27.59634001422259 Kcal/mole
 H      7.4777869994     7.4867654247    -7.4726656510
 F      7.4975919182     6.5725022636    -7.4046977364
 H     -7.4306292915    -7.4942018501     6.6597629399
 F     -7.4945392357    -7.1277530537     7.4979274814
          4
Energy: 27.589197107696403 Kcal/mole
 H      7.4942518732     7.4824102830    -7.4848176125
 F      7.4580021009     6.5669481893    -7.4460347684
 H     -7.4410652738    -7.4917118437     6.6514210770
 F     -7.4882742133    -7.1395255733     7.4967761189
          4
Energy: 27.56582475347428 Kcal/mole
 H      7.4963528254     7.4744856418    -7.4997738143
 F      7.4635722314     6.5592638899    -7.4530450489
 H     -7.4936190711    -7.4985890931     6.6531028115
 F     -7.4854863558    -7.1391607511     7.4966869068
          4
Energy: 27.56232162638646 Kcal/mole
 H      7.4999972802     7.4743473460    -7.4997759657
 F      7.4633789015     6.5592712262    -7.4530449348
 H     -7.4999000475    -7.4997598705     6.6536878932
 F     -7.4851531645    -7.1390986441     7.4966558696
