          4
Energy: 54.93077564315249 Kcal/mole
 H      2.5798688074     4.3978612514    -4.4113988057
 F      3.4968688074     4.3978612514    -4.4113988057
 H     -0.8560294909    -4.9477699297     3.5599762409
 F     -1.3816571670    -4.1963682088     3.5599762409
