          4
Energy: 27.56232162638646 Kcal/mole
 H      7.4999972802     7.4743473460    -7.4997759657
 F      7.4633789015     6.5592712262    -7.4530449348
 H     -7.4999000475    -7.4997598705     6.6536878932
 F     -7.4851531645    -7.1390986441     7.4966558696
