          14
Energy: -54.1172232124095 Kcal/mole
 H      2.5132020064     0.8039252979     3.5534294531
 F      2.7547148068     0.7386414492     4.4356417781
 H      5.7137652523    -1.1766226008     4.2131099371
 F      5.8939156293    -1.9642992374     3.7795198566
 H      1.9794947812    -9.061934E-40     1.5063314297
 F      2.2413637472     0.7740151763     1.9208317498
 H      4.3566737237     0.4968639324     4.7574644489
 F      5.2451759512     0.2817966225     4.8295674583
 H      2.3527474328    -1.9898158300     0.5216391556
 F      1.6615337540    -1.4760183725     0.8364801042
 H      4.5376020906    -2.5147305849     0.4345968663
 F      3.7360041457    -2.7845592106     0.0803056762
 H      5.9422103659    -1.9610331370     2.1312840042
 F      5.8695241901    -1.9136805035     1.2183965807
          14
Energy: -54.11778725415563 Kcal/mole
 H      2.5143381169     0.8082297867     3.5534487953
 F      2.7546545387     0.7384131060     4.4356407521
 H      5.7195317138    -1.1731254835     4.2090778458
 F      5.8936097319    -1.9644847514     3.7797337498
 H      1.9725062641     0.0020690352     1.5052590274
 F      2.2417344719     0.7738573473     1.9208886383
 H      4.3554886549     0.4929011982     4.7604371715
 F      5.2452388163     0.2820068364     4.8294097623
 H      2.3521672526    -1.9857781249     0.5139040528
 F      1.6615645313    -1.4762325634     0.8368904335
 H      4.5384561577    -2.5143146587     0.4323388170
 F      3.7359588394    -2.7845812745     0.0804254605
 H      5.9425951765    -1.9595059086     2.1313311520
 F      5.8695037767    -1.9137615195     1.2183940797
          14
Energy: -54.118662917307844 Kcal/mole
 H      2.5140963842     0.8047956928     3.5532499681
 F      2.7546673621     0.7385952768     4.4356512994
 H      5.7214617712    -1.1735813057     4.2106925324
 F      5.8935073468    -1.9644605711     3.7796480944
 H      1.9746670703     0.0025724206     1.5029376628
 F      2.2416198461     0.7738306439     1.9210117813
 H      4.3554010450     0.4914930060     4.7573495512
 F      5.2452434639     0.2820815377     4.8295735534
 H      2.3548736980    -1.9848541081     0.5182776985
 F      1.6614209606    -1.4762815804     0.8366584217
 H      4.5385039289    -2.5125926178     0.4308998285
 F      3.7359563052    -2.7846726248     0.0805017955
 H      5.9424251084    -1.9624106754     2.1311943255
 F      5.8695127985    -1.9136074283     1.2184013380
          14
Energy: -54.11856210446092 Kcal/mole
 H      2.5115581025     0.8079048662     3.5541853796
 F      2.7548020121     0.7384303423     4.4356016780
 H      5.7150763943    -1.1750857217     4.2108515941
 F      5.8938460763    -1.9643807653     3.7796396565
 H      1.9763684094     4.160386E-40     1.5058495557
 F      2.2415295940     0.7739450349     1.9208573121
 H      4.3562585771     0.4953960680     4.7582230475
 F      5.2451979738     0.2818744893     4.8295272164
 H      2.3554963266    -1.9861608439     0.5217445062
 F      1.6613879316    -1.4762122611     0.8364745156
 H      4.5395983185    -2.5169228491     0.4317246277
 F      3.7358982504    -2.7844429160     0.0804580419
 H      5.9423121857    -1.9628821900     2.1311779999
 F      5.8695187888    -1.9135824155     1.2184022040
          14
Energy: -54.117804469845865 Kcal/mole
 H      2.5084857280     0.8028001235     3.5546522329
 F      2.7549649944     0.7387011371     4.4355769125
 H      5.7194905792    -1.1735187741     4.2097852683
 F      5.8936119139    -1.9644638882     3.7796962226
 H      1.9788043423     0.0010312911     1.5031635617
 F      2.2414003734     0.7739123972     1.9209997979
 H      4.3561536471     0.4954983183     4.7598572651
 F      5.2452035400     0.2818690652     4.8294405250
 H      2.3526158425    -1.9888266428     0.5197436498
 F      1.6615407346    -1.4760708466     0.8365806564
 H      4.5388038470    -2.5136384028     0.4310231381
 F      3.7359403953    -2.7846171483     0.0804952543
 H      5.9419731256    -1.9648765296     2.1310949593
 F      5.8695367751    -1.9134766204     1.2184066091
          14
Energy: -54.11872224190782 Kcal/mole
 H      2.5159451352     0.8041866866     3.5527026891
 F      2.7545692901     0.7386275831     4.4356803313
 H      5.7181335221    -1.1745698366     4.2111628659
 F      5.8936839027    -1.9644081318     3.7796231443
 H      1.9770937764     4.935093E-40     1.5052428417
 F      2.2414911150     0.7739409253     1.9208894969
 H      4.3564925158     0.4965543103     4.7587876055
 F      5.2451855638     0.2818130472     4.8294972679
 H      2.3558248142    -1.9852939302     0.5210665255
 F      1.6613705061    -1.4762582488     0.8365104809
 H      4.5387903969    -2.5118938224     0.4296980717
 F      3.7359411088    -2.7847096943     0.0805655460
 H      5.9430365309    -1.9633797977     2.1310929079
 F      5.8694803639    -1.9135560186     1.2184067180
          14
Energy: -54.118981531526046 Kcal/mole
 H      2.5160925710     0.8033550410     3.5526015283
 F      2.7545614690     0.7386717000     4.4356856976
 H      5.7177992556    -1.1747946194     4.2114380112
 F      5.8937016348    -1.9643962076     3.7796085484
 H      1.9761935035     0.0012363638     1.5044357405
 F      2.2415388724     0.7739015186     1.9209323118
 H      4.3557253666     0.4936388136     4.7596482829
 F      5.2452262593     0.2819677076     4.8294516110
 H      2.3571091245    -1.9838789443     0.5216171743
 F      1.6613023764    -1.4763333106     0.8364812702
 H      4.5398206281    -2.5156684310     0.4302549632
 F      3.7358864574    -2.7845094600     0.0805360042
 H      5.9428508523    -1.9614104257     2.1312131152
 F      5.8694902137    -1.9136604892     1.2184003412
          14
Energy: -54.11838745673272 Kcal/mole
 H      2.5138691753     0.8028596561     3.5531689365
 F      2.7546794150     0.7386979791     4.4356555979
 H      5.7175884485    -1.1722168583     4.2066020246
 F      5.8937128176    -1.9645329518     3.7798650863
 H      1.9748684021     0.0034563443     1.5011833653
 F      2.2416091659     0.7737837538     1.9211048428
 H      4.3558237784     0.4942008992     4.7601027030
 F      5.2452210388     0.2819378902     4.8294275051
 H      2.3543601359    -1.9866402085     0.5200229448
 F      1.6614482039    -1.4761868319     0.8365658404
 H      4.5402935527    -2.5174218582     0.4305106598
 F      3.7358613698    -2.7844164447     0.0805224400
 H      5.9440735395    -1.9633168178     2.1310121439
 F      5.8694253530    -1.9135593595     1.2184110023
          14
Energy: -54.11887865749705 Kcal/mole
 H      2.5151166659     0.8039453808     3.5529091354
 F      2.7546132385     0.7386403839     4.4356693798
 H      5.7187001154    -1.1746079825     4.2114626707
 F      5.8936538462    -1.9644061082     3.7796072403
 H      1.9785431701     4.518887E-40     1.5044018746
 F      2.2414142280     0.7739431332     1.9209341083
 H      4.3554952396     0.4923277895     4.7586264802
 F      5.2452384670     0.2820372544     4.8295058153
 H      2.3547963305    -1.9858678778     0.5197337704
 F      1.6614250647    -1.4762278022     0.8365811805
 H      4.5388618537    -2.5142010227     0.4313245985
 F      3.7359373181    -2.7845873026     0.0804792625
 H      5.9421723600    -1.9643593993     2.1311080928
 F      5.8695262062    -1.9135040530     1.2184059124
          14
Energy: -54.11883108801463 Kcal/mole
 H      2.5114285160     0.8059909287     3.5540724880
 F      2.7548088863     0.7385318723     4.4356076666
 H      5.7154066254    -1.1746274158     4.2101486184
 F      5.8938285583    -1.9644050773     3.7796769477
 H      1.9763592240     0.0010966029     1.5045895292
 F      2.2415300813     0.7739089326     1.9209241536
 H      4.3559646186     0.4943871826     4.7588779852
 F      5.2452135676     0.2819280083     4.8294924735
 H      2.3540979652    -1.9854084375     0.5174761410
 F      1.6614621114    -1.4762521745     0.8367009425
 H      4.5378454657    -2.5123006514     0.4321780220
 F      3.7359912352    -2.7846881129     0.0804339903
 H      5.9450461827    -1.9635169159     2.1309211008
 F      5.8693737565    -1.9135487448     1.2184158319
          14
Energy: -54.11867885993419 Kcal/mole
 H      2.5126641786     0.8065603550     3.5537760709
 F      2.7547433373     0.7385016655     4.4356233908
 H      5.7187602732    -1.1750554327     4.2123042483
 F      5.8936506550    -1.9643823720     3.7795625966
 H      1.9744045245     0.0022897651     1.5036275325
 F      2.2416337736     0.7738456381     1.9209751853
 H      4.3555633147     0.4936840717     4.7618886156
 F      5.2452348558     0.2819653067     4.8293327665
 H      2.3565387366    -1.9829869418     0.5189327549
 F      1.6613326341    -1.4763806292     0.8366236725
 H      4.5382908603    -2.5147355676     0.4330379758
 F      3.7359676080    -2.7845589462     0.0803883718
 H      5.9460259329    -1.9615405789     2.1309452668
 F      5.8693217830    -1.9136535849     1.2184145500
          14
Energy: -54.11845077904955 Kcal/mole
 H      2.5113230026     0.8037025799     3.5539296506
 F      2.7548144836     0.7386532639     4.4356152438
 H      5.7187919775    -1.1737334125     4.2098964964
 F      5.8936489732    -1.9644525021     3.7796903222
 H      1.9765195704     0.0018055466     1.5031746398
 F      2.2415215753     0.7738713248     1.9209992102
 H      4.3560930622     0.4946309124     4.7580001203
 F      5.2452067539     0.2819150790     4.8295390422
 H      2.3535006851    -1.9892784067     0.5224182855
 F      1.6614937957    -1.4760468816     0.8364387731
 H      4.5394793779    -2.5138424073     0.4296299184
 F      3.7359045599    -2.7846063263     0.0805691613
 H      5.9425889094    -1.9602933257     2.1312918403
 F      5.8695041092    -1.9137197488     1.2183961650
          14
Energy: -54.118195459929126 Kcal/mole
 H      2.5144605960     0.8045184928     3.5531300094
 F      2.7546480415     0.7386099816     4.4356576629
 H      5.7174661711    -1.1734632633     4.2088575272
 F      5.8937193041    -1.9644668329     3.7797454371
 H      1.9810747180    -8.660902E-40     1.5052629216
 F      2.2412799352     0.7740130489     1.9208884317
 H      4.3557279198     0.4941761342     4.7612670578
 F      5.2452261239     0.2819392040     4.8293657387
 H      2.3531672263    -1.9866352401     0.5174173156
 F      1.6615114850    -1.4761870954     0.8367040630
 H      4.5392420581    -2.5137127197     0.4300752463
 F      3.7359171492    -2.7846132060     0.0805455377
 H      5.9486654546    -1.9565508636     2.1285366101
 F      5.8714033053    -1.9083779901     1.2160680164
          14
Energy: -54.11853365005963 Kcal/mole
 H      2.5170970123     0.8042685335     3.5523983224
 F      2.7545081857     0.7386232414     4.4356964772
 H      5.7152556367    -1.1759444999     4.2124935885
 F      5.8938365679    -1.9643352091     3.7795525525
 H      1.9745041566     0.0020374375     1.5040305167
 F      2.2416284883     0.7738590235     1.9209538080
 H      4.3553675077     0.4929053706     4.7620322693
 F      5.2452452429     0.2820066150     4.8293251460
 H      2.3560561088    -1.9845801099     0.5204254493
 F      1.6613582364    -1.4762961154     0.8365444885
 H      4.5398627559    -2.5130380606     0.4281187735
 F      3.7358842226    -2.7846489951     0.0806493241
 H      5.9483464069    -1.9586986220     2.1284475112
 F      5.8714202300    -1.9082640565     1.2160727429
          14
Energy: -54.11840419977521 Kcal/mole
 H      2.5122232242     0.8043318751     3.5537282132
 F      2.7547667289     0.7386198812     4.4356259296
 H      5.7187782158    -1.1757665781     4.2136059617
 F      5.8936497032    -1.9643446474     3.7794935437
 H      1.9749870248     0.0015201621     1.5046799027
 F      2.2416028733     0.7738864637     1.9209193595
 H      4.3556241867     0.4932293633     4.7596973588
 F      5.2452316267     0.2819894280     4.8294490076
 H      2.3577456668    -1.9820626526     0.5201060844
 F      1.6612686093    -1.4764296606     0.8365614301
 H      4.5392949641    -2.5127184014     0.4291803132
 F      3.7359143426    -2.7846659523     0.0805930119
 H      5.9482592139    -1.9585648257     2.1284622440
 F      5.8714248554    -1.9082711541     1.2160719613
          14
Energy: -54.11855749886686 Kcal/mole
 H      2.5111133346     0.8057932790     3.5541444662
 F      2.7548256060     0.7385423571     4.4356038483
 H      5.7161378139    -1.1752957550     4.2116738242
 F      5.8937897704    -1.9643696235     3.7795960391
 H      1.9772807132     9.436241E-40     1.5042877987
 F      2.2414811984     0.7739170478     1.9209401597
 H      4.3563426300     0.4963851458     4.7601723151
 F      5.2451935149     0.2818220210     4.8294238123
 H      2.3539052224    -1.9883382303     0.5217755997
 F      1.6614723360    -1.4760967558     0.8364728661
 H      4.5392312510    -2.5129989849     0.4295457194
 F      3.7359177225    -2.7846510679     0.0805736279
 H      5.9473633131    -1.9588460185     2.1285216787
 F      5.8714723809    -1.9082562375     1.2160688085
          14
Energy: -54.118645465995556 Kcal/mole
 H      2.5139177496     0.8039934922     3.5532388892
 F      2.7546768382     0.7386378317     4.4356518871
 H      5.7172327016    -1.1741600481     4.2100436612
 F      5.8937316891    -1.9644298701     3.7796825155
 H      1.9756896883     0.0030996472     1.5013170441
 F      2.2415655986     0.7738026757     1.9210977514
 H      4.3553963783     0.4929639561     4.7618344350
 F      5.2452437114     0.2820035072     4.8293356407
 H      2.3541828312    -1.9872598165     0.5206353124
 F      1.6614576095    -1.4761539631     0.8365333557
 H      4.5390452130    -2.5138923122     0.4306662146
 F      3.7359275913    -2.7846036790     0.0805141882
 H      5.9463361840    -1.9555989878     2.1287804037
 F      5.8715268677    -1.9084284849     1.2160550837
          14
Energy: -54.118988882412694 Kcal/mole
 H      2.5099292509     0.8074049236     3.5536347830
 F      2.7516107691     0.7393315074     4.4355900277
 H      5.7162950640    -1.1748959572     4.2110075898
 F      5.8937814286    -1.9643908318     3.7796313813
 H      1.9777663499     1.675176E-40     1.5054223738
 F      2.2414554365     0.7739582184     1.9208799732
 H      4.3558723594     0.4943320926     4.7598816530
 F      5.2452184617     0.2819309307     4.8294392313
 H      2.3566695856    -1.9815522236     0.5169412305
 F      1.6613256929    -1.4764567377     0.8367293182
 H      4.5431321508    -2.5103412908     0.4268989141
 F      3.7396856854    -2.7797847348     0.0765233904
 H      5.9465472181    -1.9607978624     2.1284787541
 F      5.8715156728    -1.9081526966     1.2160710855
          14
Energy: -54.11846906020756 Kcal/mole
 H      2.5119239722     0.8043455418     3.5528603549
 F      2.7515049537     0.7394938005     4.4356311094
 H      5.7191739996    -1.1762074570     4.2145647225
 F      5.8936287078    -1.9643212598     3.7794426836
 H      1.9763483443     0.0026114517     1.5017973148
 F      2.2415306584     0.7738285734     1.9210722742
 H      4.3557465754     0.4944636578     4.7619234523
 F      5.2452251343     0.2819239515     4.8293309185
 H      2.3559722388    -1.9835886382     0.5186538392
 F      1.6613626855    -1.4763487106     0.8366384683
 H      4.5411678949    -2.5097957991     0.4309527208
 F      3.7397898846    -2.7798136718     0.0763083453
 H      5.9438870814    -1.9598117958     2.1287497178
 F      5.8716567869    -1.9082050052     1.2160567115
          14
Energy: -54.118865869087614 Kcal/mole
 H      2.5097744348     0.8058867464     3.5556443949
 F      2.7528528308     0.7400602957     4.4373862912
 H      5.7202313272    -1.1744417103     4.2117758982
 F      5.8935726190    -1.9644149286     3.7795906243
 H      1.9744342484     6.095212E-40     1.5067304984
 F      2.2416321968     0.7739347711     1.9208105802
 H      4.3562571935     0.4961261661     4.7604677299
 F      5.2451980471     0.2818357593     4.8294081412
 H      2.3549312393    -1.9832809592     0.5159035423
 F      1.6614179081    -1.4763650323     0.8367843652
 H      4.5421480086    -2.5088584853     0.4280087440
 F      3.7397378919    -2.7798633942     0.0764645165
 H      5.9453514032    -1.9603705629     2.1286008072
 F      5.8715791080    -1.9081753639     1.2160646109
          14
Energy: -54.11921624446866 Kcal/mole
 H      2.5117599746     0.8061550074     3.5551196103
 F      2.7527475025     0.7400460651     4.4374141298
 H      5.7173119243    -1.1750685292     4.2117398534
 F      5.8937274866    -1.9643816773     3.7795925364
 H      1.9741693505     0.0021303817     1.5040731217
 F      2.2416462490     0.7738540930     1.9209515479
 H      4.3558871483     0.4948767830     4.7613749612
 F      5.2452176772     0.2819020362     4.8293600147
 H      2.3564079884    -1.9841155400     0.5204523246
 F      1.6613395700    -1.4763207597     0.8365430628
 H      4.5426032524    -2.5110175867     0.4286262209
 F      3.7397137422    -2.7797488588     0.0764317607
 H      5.9465725384    -1.9601240104     2.1285152894
 F      5.8715143297    -1.9081884429     1.2160691474
          14
Energy: -54.11903624954118 Kcal/mole
 H      2.5117119254     0.8053613089     3.5550736424
 F      2.7527500514     0.7400881690     4.4374165683
 H      5.7149209935    -1.1754346617     4.2114252922
 F      5.8938543199    -1.9643622548     3.7796092231
 H      1.9761406251     0.0022680730     1.5025612408
 F      2.2415416774     0.7738467888     1.9210317497
 H      4.3566661129     0.4975947402     4.7597811657
 F      5.2451763549     0.2817578548     4.8294445619
 H      2.3548915976    -1.9833537754     0.5159329105
 F      1.6614200110    -1.4763611696     0.8367828073
 H      4.5416310249    -2.5089164392     0.4292308092
 F      3.7397653167    -2.7798603198     0.0763996887
 H      5.9438275481    -1.9565804497     2.1289310960
 F      5.8716599450    -1.9083764206     1.2160470898
          14
Energy: -54.11839137047738 Kcal/mole
 H      2.5115949814     0.8014557374     3.5548258134
 F      2.7527562551     0.7402953505     4.4374297151
 H      5.7203672500    -1.1758844849     4.2144562898
 F      5.8935654086    -1.9643383927     3.7794484357
 H      1.9777425833     8.417244E-40     1.5041842661
 F      2.2414566973     0.7739224533     1.9209456519
 H      4.3551888897     0.4919899293     4.7615340220
 F      5.2452547182     0.2820551771     4.8293515769
 H      2.3551735308    -1.9838081160     0.5172635726
 F      1.6614050551    -1.4763370678     0.8367122187
 H      4.5421761070    -2.5108556451     0.4294750208
 F      3.7397364013    -2.7797574494     0.0763867339
 H      5.9456470138    -1.9594221660     2.1286305856
 F      5.8715634266    -1.9082256742     1.2160630312
          14
Energy: -54.11852686387243 Kcal/mole
 H      2.5132049205     0.8078729132     3.5548567101
 F      2.7526708515     0.7399549342     4.4374280761
 H      5.7182582346    -1.1762835762     4.2143343468
 F      5.8936772870    -1.9643172219     3.7794549045
 H      1.9758101089     7.014389E-40     1.5056748535
 F      2.2415592106     0.7739298951     1.9208665797
 H      4.3555747734     0.4938494469     4.7622578814
 F      5.2452342480     0.2819565340     4.8293131778
 H      2.3571718628    -1.9813170672     0.5176633195
 F      1.6612990482    -1.4764692122     0.8366910131
 H      4.5419653370    -2.5073190112     0.4272344215
 F      3.7397475822    -2.7799450597     0.0765055925
 H      5.9433793564    -1.9545528684     2.1290710938
 F      5.8716837206    -1.9084839791     1.2160396632
          14
Energy: -54.1191507968165 Kcal/mole
 H      2.5114958283     0.8060681524     3.5551852993
 F      2.7527615149     0.7400506726     4.4374106452
 H      5.7198313596    -1.1743831969     4.2115082382
 F      5.8935938363    -1.9644180326     3.7796048231
 H      1.9788067147     9.462102E-40     1.5033194867
 F      2.2414002475     0.7739169106     1.9209915265
 H      4.3552540619     0.4923504707     4.7617963358
 F      5.2452512610     0.2820360512     4.8293376618
 H      2.3555020174    -1.9840552993     0.5183719444
 F      1.6613876297    -1.4763239553     0.8366534222
 H      4.5425836837    -2.5099389541     0.4278451615
 F      3.7397147803    -2.7798060778     0.0764731941
 H      5.9454064246    -1.9566746346     2.1287998524
 F      5.8715761893    -1.9083714244     1.2160540520
          14
Energy: -54.118491161832935 Kcal/mole
 H      2.5117746013     0.8053833823     3.5550581563
 F      2.7527467266     0.7400869980     4.4374173898
 H      5.7150547542    -1.1756085115     4.2117981144
 F      5.8938472242    -1.9643530325     3.7795894458
 H      1.9747067812     0.0026850468     1.5027046212
 F      2.2416177395     0.7738246693     1.9210241437
 H      4.3568209654     0.4980954275     4.7593608077
 F      5.2451681404     0.2817312945     4.8294668609
 H      2.3548020129    -1.9860093789     0.5199739353
 F      1.6614247633    -1.4762202959     0.8365684403
 H      4.5441552916    -2.5099134104     0.4242109980
 F      3.7396314101    -2.7798074328     0.0766659781
 H      5.9459950145    -1.9567082600     2.1287502611
 F      5.8715449660    -1.9083696406     1.2160566827
          14
Energy: -54.117847874855784 Kcal/mole
 H      2.5125702946     0.8055642997     3.5548546629
 F      2.7527045169     0.7400774008     4.4374281847
 H      5.7207406457    -1.1745660887     4.2122069610
 F      5.8935456008    -1.9644083306     3.7795677574
 H      1.9726242849     0.0018797504     1.5055342229
 F      2.2417282112     0.7738673884     1.9208740398
 H      4.3550986910     0.4916515843     4.7616715512
 F      5.2452595030     0.2820731255     4.8293442813
 H      2.3580850216    -1.9805021745     0.5183688895
 F      1.6612506073    -1.4765124404     0.8366535842
 H      4.5429262035    -2.5124627148     0.4289891831
 F      3.7396966104    -2.7796721981     0.0764125064
 H      5.9520112124    -1.9594392406     2.1268873231
 F      5.8754807499    -1.9173261544     1.2140573410
          14
Energy: -54.119017466095144 Kcal/mole
 H      2.5121358057     0.8025148744     3.5547522797
 F      2.7527275656     0.7402391658     4.4374336159
 H      5.7170073037    -1.1752918742     4.2120231641
 F      5.8937436460    -1.9643698293     3.7795775074
 H      1.9761329189     7.169619E-40     1.5054395282
 F      2.2415420862     0.7739290717     1.9208790632
 H      4.3563043981     0.4962821649     4.7603442746
 F      5.2451955431     0.2818274839     4.8294146902
 H      2.3564436764    -1.9823698881     0.5177437371
 F      1.6613376768    -1.4764133625     0.8366867471
 H      4.5445519761    -2.5135568398     0.4260963763
 F      3.7396103669    -2.7796141573     0.0765659631
 H      5.9453007018    -1.9638087059     2.1272112927
 F      5.8758367270    -1.9170943644     1.2140401551
          14
Energy: -54.11823227219851 Kcal/mole
 H      2.5158137296     0.8048051107     3.5539229816
 F      2.7525324602     0.7401176740     4.4374776082
 H      5.7181609183    -1.1767635764     4.2151637645
 F      5.8936824494    -1.9642917589     3.7794109058
 H      1.9759926027     5.538372E-40     1.5058330321
 F      2.2415495297     0.7739377250     1.9208581887
 H      4.3555580094     0.4887338130     4.7691723362
 F      5.2447171730     0.2777649447     4.8451796933
 H      2.3559470087    -1.9822554712     0.5164828448
 F      1.6613640239    -1.4764194321     0.8367536346
 H      4.5440291407    -2.5120529320     0.4261518503
 F      3.7396381022    -2.7796939361     0.0765630204
 H      5.9475667672    -1.9656256634     2.1269410605
 F      5.8757165175    -1.9169979790     1.2140544903
          14
Energy: -54.118416971276915 Kcal/mole
 H      2.5127570245     0.8034424346     3.5546491464
 F      2.7526946114     0.7401899608     4.4374390868
 H      5.7183688536    -1.1779304941     4.2173490025
 F      5.8936714189    -1.9642298567     3.7792949840
 H      1.9729024089     0.0024317221     1.5043304003
 F      2.2417134573     0.7738381076     1.9209378998
 H      4.3557581381     0.4905028632     4.7718116169
 F      5.2447065566     0.2776711006     4.8450396856
 H      2.3577999428    -1.9810964945     0.5186867195
 F      1.6612657300    -1.4764809131     0.8366367241
 H      4.5443729680    -2.5156793879     0.4281113191
 F      3.7396198629    -2.7795015610     0.0764590751
 H      5.9467971795    -1.9630038225     2.1271369640
 F      5.8757573423    -1.9171370616     1.2140440981
          14
Energy: -54.11826088501475 Kcal/mole
 H      2.5104810332     0.8074714701     3.5555697087
 F      2.7528153474     0.7399762298     4.4373902531
 H      5.7178429545    -1.1768854138     4.2152557325
 F      5.8936993166    -1.9642852958     3.7794060271
 H      1.9754451468     0.0015750247     1.5042851240
 F      2.2415785710     0.7738835534     1.9209403016
 H      4.3553788619     0.4890421084     4.7721876422
 F      5.2447266763     0.2777485903     4.8450197383
 H      2.3556011571    -1.9831707909     0.5171808156
 F      1.6613823705    -1.4763708765     0.8367166088
 H      4.5432097145    -2.5097954805     0.4263003223
 F      3.7396815708    -2.7798136887     0.0765551443
 H      5.9507047609    -1.9628976613     2.1268294159
 F      5.8755500541    -1.9171426932     1.2140604128
          14
Energy: -54.11794229123113 Kcal/mole
 H      2.5122940162     0.8090596774     3.5551965947
 F      2.7527191729     0.7398919791     4.4374100460
 H      5.7169100063    -1.1783652879     4.2175428108
 F      5.8937488074    -1.9642067919     3.7792847029
 H      1.9804746785     6.266901E-40     1.5028660448
 F      2.2413117659     0.7739338604     1.9210155805
 H      4.3558556605     0.4914328993     4.7733542249
 F      5.2447013833     0.2776217644     4.8449578538
 H      2.3555048145    -1.9850930312     0.5200398461
 F      1.6613874813    -1.4762689061     0.8365649439
 H      4.5444118689    -2.5124817719     0.4255985627
 F      3.7396177993    -2.7796711872     0.0765923710
 H      5.9452559140    -1.9636643436     2.1272220715
 F      5.8758391029    -1.9171020225     1.2140395833
          14
Energy: -54.11877551556147 Kcal/mole
 H      2.5132919447     0.8056518121     3.5546651435
 F      2.7526662351     0.7400727585     4.4374382382
 H      5.7177970070    -1.1763311981     4.2142343217
 F      5.8937017540    -1.9643146956     3.7794602106
 H      1.9768511520     0.0017558990     1.5030562360
 F      2.2415039856     0.7738739584     1.9210054913
 H      4.3561470833     0.4925000325     4.7729334721
 F      5.2446859240     0.2775651554     4.8449801737
 H      2.3555658860    -1.9851590908     0.5202800742
 F      1.6613842416    -1.4762654018     0.8365522003
 H      4.5445187922    -2.5139185427     0.4264477342
 F      3.7396121273    -2.7795949698     0.0765473244
 H      5.9457646423    -1.9624476255     2.1272444360
 F      5.8758121160    -1.9171665666     1.2140383970
          14
Energy: -54.118544037365695 Kcal/mole
 H      2.5126617074     0.8073654567     3.5549653844
 F      2.7526996677     0.7399818536     4.4374223112
 H      5.7169222695    -1.1766950080     4.2145385817
 F      5.8937481568    -1.9642953963     3.7794440703
 H      1.9742811408     0.0012338438     1.5056652952
 F      2.2416403188     0.7739016523     1.9208670867
 H      4.3568769501     0.4948260809     4.7709437574
 F      5.2446472062     0.2774417639     4.8450857235
 H      2.3540692009    -1.9841768904     0.5154586567
 F      1.6614636373    -1.4763175052     0.8368079654
 H      4.5439832891    -2.5128082091     0.4268340209
 F      3.7396405345    -2.7796538704     0.0765268328
 H      5.9473048590    -1.9663269879     2.1269239928
 F      5.8757304111    -1.9169607754     1.2140553957
          14
Energy: -54.11878715912617 Kcal/mole
 H      2.5138439957     0.8046479632     3.5544416875
 F      2.7526369500     0.7401260103     4.4374500921
 H      5.7182811331    -1.1768912365     4.2154427737
 F      5.8936760723    -1.9642849869     3.7793961050
 H      1.9736120025     0.0015584291     1.5054928742
 F      2.2416758150     0.7738844338     1.9208762333
 H      4.3565896642     0.4936906350     4.7710644142
 F      5.2446624461     0.2775019967     4.8450793229
 H      2.3566774089    -1.9811713785     0.5163575083
 F      1.6613252779    -1.4764769407     0.8367602834
 H      4.5438455847    -2.5134312061     0.4276232235
 F      3.7396478394    -2.7796208219     0.0764849674
 H      5.9469160371    -1.9660327508     2.1269702522
 F      5.8757510372    -1.9169763840     1.2140529418
          14
Energy: -54.11867420786177 Kcal/mole
 H      2.5128814783     0.8038066921     3.5546415082
 F      2.7526880094     0.7401706378     4.4374394920
 H      5.7184694414    -1.1769747941     4.2156692900
 F      5.8936660829    -1.9642805543     3.7793840889
 H      1.9764913458     0.0017427783     1.5033085544
 F      2.2415230725     0.7738746545     1.9209921064
 H      4.3557322789     0.4903475447     4.7716744262
 F      5.2447079284     0.2776793399     4.8450469632
 H      2.3544325491    -1.9856161412     0.5185354915
 F      1.6614443625    -1.4762411563     0.8366447464
 H      4.5439779360    -2.5116945065     0.4259950296
 F      3.7396408184    -2.7797129498     0.0765713394
 H      5.9501198767    -1.9635687761     2.1268434749
 F      5.8755810809    -1.9171070921     1.2140596670
          14
Energy: -54.1184670266686 Kcal/mole
 H      2.5128882924     0.8036383728     3.5546275410
 F      2.7526876479     0.7401795668     4.4374402330
 H      5.7182127844    -1.1783744064     4.2180824480
 F      5.8936796980    -1.9642063081     3.7792560764
 H      1.9746076881     0.0025694411     1.5029810836
 F      2.2416229962     0.7738308019     1.9210094780
 H      4.3558189915     0.4909857444     4.7724812746