          14
Energy: -53.88880387854245 Kcal/mole
 H      2.7114139312     0.5783183069     3.7219404396
 F      3.1332896485     0.4649008450     4.5281949642
 H      6.4160149189    -1.0171367404     4.5337845205
 F      6.7219854683    -1.8795028272     4.4738199037
 H      1.8499555834    -0.2150882260     1.8370380885
 F      2.0436534255     0.5945574822     2.2215429301
 H      4.7920966049     0.5244700700     4.5860235094
 F      5.7068395306     0.4863046949     4.5342762003
 H      2.1300186867    -2.3444896791     1.8425965182
 F      1.6360496604    -1.7753574966     1.3201291413
 H      4.1119670851    -3.2149024466     2.6085063909
 F      3.2080604273    -3.2434723668     2.7602479929
 H      6.1445184244    -2.6446662681     3.1226753796
 F      5.7071570567    -2.9323996760     2.3698051915
          14
Energy: -53.911358239669866 Kcal/mole
 H      2.5837239824     0.3492109722     3.6573003044
 F      3.1385990011     0.1817887253     4.3679144787
 H      6.4225478512    -0.8649347004     4.3160664135
 F      6.7288359753    -1.7276577201     4.2632878546
 H      1.5556946598    -0.3843684072     1.8784495799
 F      1.6885855009     0.4211598430     2.2960058785
 H      4.7512288907     0.5239795702     4.4333984594
 F      5.6631846315     0.5988437495     4.3732230375
 H      2.0921100743    -2.5032239998     1.6759033826
 F      1.5006396744    -1.9099225865     1.3030157331
 H      4.1341453025    -3.3177155211     2.2891733986
 F      3.2352458764    -3.4815203128     2.3668703221
 H      6.1793601561    -2.4997016671     2.9344624535
 F      5.7610859205    -2.8496839823     2.1972731679
          14
Energy: -53.90909469626696 Kcal/mole
 H      2.7430464459     0.3244691024     3.6519949395
 F      3.1597968360     0.1543553033     4.4509125871
 H      6.5001959113    -0.9748582063     4.5397144207
 F      6.8166201378    -1.7921689376     4.2699592031
 H      1.8455838284    -0.2277419973     1.7216639576
 F      2.0368301813     0.5371663934     2.1898829089
 H      4.7867503243     0.4138964259     4.7534603722
 F      5.6998290127     0.4872675845     4.7958039897
 H      2.2220583393    -2.4201553677     1.3947793691
 F      1.6809832037    -1.7547487940     1.0701861013
 H      4.2231065592    -3.1264682047     2.0360727169
 F      3.3485361144    -3.3993772325     2.0752670997
 H      6.2169668660    -2.3399999214     2.8536736797
 F      5.7889632759    -2.5622328846     2.0737285297
          14
Energy: -53.87422308905499 Kcal/mole
 H      2.8259872835     0.6318857142     3.7145461676
 F      3.1597651185     0.5802480737     4.5670805721
 H      6.1809467117    -1.0427116149     4.6546594260
 F      6.3808367140    -1.9076517436     4.4248517659
 H      2.0943312530    -0.1704790427     1.6999898767
 F      2.4049518397     0.5919668812     2.1038216042
 H      4.7896595694     0.6144493459     4.7217454289
 F      5.6959095176     0.4997011978     4.8019507528
 H      2.2079215503    -2.3346530692     1.2934669552
 F      1.6352326559    -1.6403141711     1.1179393940
 H      4.2380732158    -3.1311163435     1.7617341134
 F      3.3687396403    -3.4092027094     1.6733253609
 H      6.0080204416    -2.2260316566     2.8371880905
 F      5.7123166720    -2.3781496698     1.9826072630
          14
Energy: -53.97216766041137 Kcal/mole
 H      2.7365170510     0.6550298714     3.8001299605
 F      3.1181034457     0.6665381897     4.6338855494
 H      6.3718171129    -0.9330194276     4.4722262937
 F      6.6532091266    -1.7938525390     4.3284421192
 H      1.8301881634    -0.2619495706     1.9546376539
 F      2.1178849204     0.5402598880     2.2931336813
 H      4.7656471812     0.6394276885     4.7072901141
 F      5.6781989690     0.5669143992     4.6536239479
 H      2.1288950645    -2.4344948867     1.5263344926
 F      1.4877088700    -1.7936406859     1.3882216499
 H      4.2919378898    -3.2408180456     1.9033088227
 F      3.3999398546    -3.4473637976     1.8526397249
 H      6.1993934776    -2.3770823662     2.8628307195
 F      5.8459291428    -2.6354182095     2.0570922036
          14
Energy: -53.764129555059185 Kcal/mole
 H      2.6648841905     0.6408688343     3.7728674710
 F      3.0538693461     0.5998037620     4.6022607484
 H      6.2875135943    -0.9468395844     4.3744637926
 F      6.4964360059    -1.8218949357     4.1969291250
 H      1.9658332194    -0.1488409280     1.7483786558
 F      2.1693715599     0.6284897495     2.1902136497
 H      4.7188978894     0.6675460994     4.7113367990
 F      5.6233681565     0.5410788674     4.6287016050
 H      2.3208656699    -2.3022938345     0.9619995056
 F      1.7283394597    -1.6034173080     0.9249415660
 H      4.4763322799    -3.1167103853     1.3058599189
 F      3.6163396619    -3.3809258014     1.1284003157
 H      6.2149941004    -2.3453088151     2.6600645471
 F      5.9749122743    -2.5412096306     1.7970045334
          14
Energy: -53.8594430743298 Kcal/mole
 H      2.8365562890     0.7597369052     3.6861964499
 F      3.1789263751     0.8363860760     4.5334252436
 H      6.0828561830    -0.9854084152     4.4443468843
 F      6.1352498347    -1.8687597424     4.2038591756
 H      2.1217113250    -0.2223538460     1.6591949635
 F      2.4242523656     0.5503796168     2.0493755810
 H      4.8007299580     0.7270164597     4.7124533777
 F      5.7075571356     0.5908094859     4.7135165045
 H      2.4201073288    -2.3790545658     1.0684337815
 F      1.7958461501    -1.7073506055     1.0675559954
 H      4.4516638868    -3.2002183265     1.2886470075
 F      3.6073636693    -3.4986578553     1.0912134986
 H      6.0006409575    -2.3135918531     2.6234248040
 F      5.8654320249    -2.5023984552     1.7363173632
          14
Energy: -53.93655403001458 Kcal/mole
 H      2.5391141614     0.7031437845     3.7287788297
 F      3.0083864080     0.6436164382     4.5143544490
 H      6.1343629983    -0.9004916839     4.2265474776
 F      6.2909137502    -1.7753512979     4.0007123210
 H      1.6544269367    -0.2656110967     1.8517658264
 F      1.8429907097     0.5500492680     2.2259728184
 H      4.6577767128     0.7117306267     4.5054001140
 F      5.5707097951     0.6504010927     4.4447298944
 H      2.1362167880    -2.4228242554     1.1934438632
 F      1.4563558427    -1.8090239092     1.2373440912
 H      4.3469781735    -3.1207225781     1.2698910650
 F      3.4797967516    -3.3891752658     1.1402047666
 H      6.0403843402    -2.2092196292     2.4273769548
 F      5.8051800512    -2.4461601297     1.5733118861
          14
Energy: -53.93218286567334 Kcal/mole
 H      2.6325322861     0.6971891231     3.6204625119
 F      2.9590445661     0.6722381903     4.4769998327
 H      6.2331404095    -0.8648075371     4.2720433175
 F      6.5313552655    -1.6764852421     3.9668610721
 H      1.7819268957    -0.2532503045     1.7517532648
 F      2.1180253380     0.5617480008     2.0041509658
 H      4.6021376747     0.6423787877     4.7027618144
 F      5.5128899828     0.5418912180     4.7391140007
 H      2.0509768949    -2.4162781556     1.2505400912
 F      1.3876409728    -1.8037294689     1.4107229893
 H      4.2837365381    -2.9340770017     1.1872678333
 F      3.4587082526    -3.3107029570     1.0517310560
 H      6.0284409060    -2.0024918335     2.4333489514
 F      5.6669993489    -2.0972311598     1.5959282323
          14
Energy: -53.94838545989515 Kcal/mole
 H      2.7312951901     0.6759052547     3.7272265271
 F      3.0346061559     0.6805248151     4.5925993472
 H      6.0601532817    -1.2262921134     4.4783848519
 F      6.2779553524    -2.0562112537     4.1548334982
 H      2.0333209225    -0.1832167950     1.7077547257
 F      2.3620125593     0.5784340156     2.0985729068
 H      4.6457420499     0.4942040200     4.8061027312
 F      5.5414240657     0.3105091196     4.8760949451
 H      2.2554475260    -2.2204172417     0.9115250583
 F      1.5791922063    -1.6438361356     1.1376267406
 H      4.4631383807    -2.8363005715     0.9063562782
 F      3.6377696234    -3.0748841494     0.5858359345
 H      6.0548081673    -2.2723158723     2.5572452520
 F      5.8699411289    -2.3409258813     1.6616974617
          14
Energy: -53.972133127137226 Kcal/mole
 H      2.8111821495     0.9982884640     3.7948881765
 F      3.1551614242     1.0569174595     4.6429034473
 H      5.8167726315    -1.2353449936     4.4048838066
 F      5.8156904018    -2.1147893656     4.1451427329
 H      2.0185402632    -0.1270185908     1.9716535084
 F      2.3105404304     0.7003412508     2.2383004563
 H      4.7845776453     0.7033739226     4.8112312722
 F      5.6420576878     0.3787757602     4.7953249902
 H      2.3752819850    -2.2712249996     1.2174256290
 F      1.7441224489    -1.7226683521     1.5937396527
 H      4.5635763995    -2.9208963098     0.9243691096
 F      3.7090088377    -3.0867032418     0.6360787289
 H      5.9972047948    -2.3796485484     2.5176425358
 F      6.0060048836    -2.5011778223     1.6087739017
          14
Energy: -53.91159121455692 Kcal/mole
 H      2.9185137527     0.9496658353     3.9024604086
 F      3.1802179195     0.9836845627     4.7806646305
 H      5.9279710166    -1.3257190467     4.5712028937
 F      6.0239131679    -2.1341428757     4.1491424522
 H      2.2827124036    -0.0726499204     1.9297622046
 F      2.6521263269     0.6920762218     2.2756180716
 H      4.7491675197     0.5176216746     5.1583729392
 F      5.5918995568     0.1649042223     5.2376327182
 H      2.4284107082    -2.1960203557     1.0926767815
 F      1.8239254946    -1.6287653009     1.4847333198
 H      4.5243689096    -2.9022522436     0.8061574153
 F      3.6875740193    -3.0859494667     0.4791732540
 H      5.9841984681    -2.3247607836     2.5386131425
 F      5.9005413121    -2.4109992246     1.6295183116
          14
Energy: -53.985565051997625 Kcal/mole
 H      3.0479918133     1.2379559482     3.5602243588
 F      3.4089687330     1.3392234035     4.3970813155
 H      5.7541916637    -1.2887300019     4.5326667595
 F      5.6916704625    -2.1490663617     4.2215374497
 H      2.2235634655    -0.0015582433     1.7759347974
 F      2.5094465320     0.8326649002     2.0273937784
 H      4.8984600072     0.7553253774     4.7673316198
 F      5.7126299183     0.3491921478     4.8816651479
 H      2.4276483630    -2.1312957012     0.9835278598
 F      1.8323491239    -1.5572063127     1.3796707505
 H      4.4877688300    -2.9507975811     0.8121598233
 F      3.6568221079    -3.0613149475     0.4404039131
 H      5.8655716170    -2.4966722792     2.5816417172
 F      5.8754140657    -2.6114088620     1.6719012912
          14
Energy: -53.98141395940175 Kcal/mole
 H      2.9353015650     1.1377930687     3.4474742038
 F      3.2007943087     1.1757349503     4.3243795673
 H      5.7040454465    -1.2255310886     4.5488381453
 F      5.7232963514    -2.1154445186     4.3284464718
 H      2.1931665436     0.0473306962     1.6392148745
 F      2.5209388539     0.8781172660     1.8471763811
 H      4.7254664405     0.7159499691     4.6882617373
 F      5.5768766199     0.3924870882     4.7948519394
 H      2.4164788365    -2.1947124894     1.1001681316
 F      1.8073724144    -1.5563608420     1.3499391084
 H      4.4840357085    -3.0518970557     1.0796748941
 F      3.6416936592    -3.2579451432     0.7815255058
 H      5.9073917494    -2.4119392076     2.7011795715
 F      5.8773920572    -2.4806251279     1.7872478110
          14
Energy: -53.991019704750286 Kcal/mole
 H      2.9319419729     1.1177595870     3.4757394541
 F      3.1486133183     1.1417332570     4.3664514116
 H      5.8246459722    -1.1722549121     4.6861617850
 F      5.8909427959    -2.0384138352     4.3924570845
 H      2.3184821742     0.0527585109     1.6245232204
 F      2.6920886848     0.8525391503     1.8728337195
 H      4.6956378800     0.7445166085     4.8589046816
 F      5.5184750708     0.3979030211     5.0679189836
 H      2.4223342901    -2.0877516421     1.0444803691
 F      1.7918376251    -1.4555393094     1.2534553002
 H      4.4677604206    -2.9794688124     1.1513337581
 F      3.6442726499    -3.1600914658     0.7905951427
 H      5.9444775137    -2.3632474351     2.7907881303
 F      5.8943532026    -2.5388165729     1.8921491420
          14
Energy: -53.89341612701854 Kcal/mole
 H      2.8528066340     1.0226220776     3.5808612482
 F      3.0224925689     1.1062912721     4.4781321936
 H      5.7122445842    -1.1751794416     4.6588701119
 F      5.8203599870    -2.0114378834     4.2984927010
 H      2.3711850801    -0.0232850503     1.5612986287
 F      2.8009152866     0.7026035593     1.9208910034
 H      4.5599804393     0.6726103979     4.9341030909
 F      5.4152001924     0.3690009956     5.0656686820
 H      2.3298872101    -2.1837121374     0.9370847922
 F      1.7568998508    -1.4742160916     1.0329484830
 H      4.4118462615    -3.1440239272     1.1663291890
 F      3.5551638439    -3.3176675880     0.8891431244
 H      5.8992567677    -2.4286810551     2.6781330267
 F      5.8610300213    -2.6848940228     1.7984838745
          14
Energy: -53.97287228429231 Kcal/mole
 H      2.8477667589     0.8172918994     3.4614908761
 F      3.0095918403     0.7002992947     4.3564849395
 H      5.9333598332    -1.2536628013     4.6045426235
 F      6.1029872726    -2.1035727042     4.3049283902
 H      2.3025204908     0.1009178488     1.4457985077
 F      2.6551525076     0.8558914960     1.8286228183
 H      4.5706678515     0.4836363429     4.8059494300
 F      5.4581055166     0.2934550443     4.9370008100
 H      2.4030790729    -2.1171527869     0.7714119871
 F      1.8371189661    -1.3991568186     0.8425452919
 H      4.3301744701    -3.1518314317     1.1500174099
 F      3.5127347791    -3.3390959691     0.7790546830
 H      5.9457909593    -2.4613305190     2.6980775058
 F      5.7387251210    -2.5966700983     1.8150735778
          14
Energy: -54.0192479985802 Kcal/mole
 H      2.7808557118     0.7124948732     3.4711329649
 F      2.8604834276     0.6333546655     4.3812347473
 H      5.6992188390    -1.3900102112     4.6765515142
 F      5.8642585920    -2.2174213852     4.3173278666
 H      2.4663724865     0.0022126016     1.3513094724
 F      2.8018287758     0.7197645779     1.8133454442
 H      4.3918865870     0.3658795123     4.9640422877
 F      5.2615241766     0.1389293961     5.1460123607
 H      2.5140439686    -2.1168532088     0.6708002777
 F      1.9316881356    -1.4090234099     0.6977754430
 H      4.5026643308    -3.0561173734     1.0439684717
 F      3.6793493624    -3.2670688329     0.6996707161
 H      5.8881448007    -2.3752616490     2.6846617414
 F      5.8422486901    -2.4403212515     1.7711247716
          14
Energy: -53.9410172128962 Kcal/mole
 H      2.9368763989     0.9276333198     3.3434461033
 F      3.0170468923     0.9598750951     4.2563656835
 H      5.7577396456    -1.3502823655     4.5988012278
 F      5.8715831119    -2.1967535881     4.2650121710
 H      2.5548984500     0.0077599021     1.3104114665
 F      2.9707852637     0.7324892218     1.6881608165
 H      4.5010080187     0.5335754781     4.8834269667
 F      5.3313923831     0.1895387564     5.0650571997
 H      2.4763461143    -2.1149790327     0.6633556335
 F      1.9096920761    -1.3951713054     0.7042094803
 H      4.5134288463    -2.9963102661     1.0576225035
 F      3.6740774332    -3.2630376404     0.8022116326
 H      5.9916930923    -2.3455745780     2.6002746527
 F      5.9389426023    -2.3969455806     1.6862355912
          14
Energy: -53.980833654309365 Kcal/mole
 H      2.9295726490     0.7858730976     3.3050957234
 F      3.0363638823     0.7259911785     4.2138854616
 H      5.9163078174    -1.3245004818     4.5380063425
 F      6.1316946003    -2.1565614799     4.2183627454
 H      2.4021401005     0.0287436181     1.3185946309
 F      2.8109831927     0.7707557019     1.6695282336
 H      4.5743838450     0.4358266128     4.8039115936
 F      5.4259659342     0.1721911324     5.0188378107
 H      2.4197391303    -2.1283094053     0.7743238115
 F      1.8479509789    -1.4114414926     0.7812307441
 H      4.4160439920    -2.9765715982     1.1871986681
 F      3.5762073225    -3.2732301375     0.9691228104
 H      6.0050690652    -2.2999877868     2.5901475035
 F      5.8244216468    -2.3037320231     1.6911249838
          14
Energy: -54.024028659963335 Kcal/mole
 H      2.8733961430     0.8138576374     3.3532643868
 F      3.0358438265     0.7288048496     4.2517440880
 H      5.9068726787    -1.3031900219     4.5384603080
 F      6.0002648840    -2.1477644854     4.1936982573
 H      2.2995179048     0.0590390699     1.3032208375
 F      2.7035987133     0.7802145678     1.7001006701
 H      4.6041632762     0.4812865202     4.7697894909
 F      5.4689681492     0.2499569288     4.9685057501
 H      2.3156929518    -2.0577655579     0.7273510732
 F      1.7153811208    -1.3645739160     0.7275819704
 H      4.3668258696    -2.9963341965     1.0653742141
 F      3.5011165624    -3.1874414874     0.8310359994
 H      5.9387098183    -2.3726265551     2.5461288497
 F      5.8204068676    -2.4361114833     1.6390108443
          14
Energy: -53.894255694553124 Kcal/mole
 H      2.7835351146     0.6916531889     3.2759691152
 F      3.0002150237     0.4465438110     4.1326255282
 H      6.0547981552    -1.1688032470     4.4230959094
 F      6.3770813201    -1.9296603412     4.0254540556
 H      2.1917940687     0.1423052954     1.2860359723
 F      2.4972946442     0.8981677049     1.7058340382
 H      4.5469152877     0.3955495962     4.6990291841
 F      5.4136702813     0.2449354413     4.9577571445
 H      2.3911621715    -2.0345477211     0.7300971789
 F      1.7789787951    -1.3528358021     0.6928228847
 H      4.4909137930    -2.8937587617     1.0679011191
 F      3.6222911692    -3.1265789170     0.8885174163
 H      6.2160306444    -2.2647084439     2.4083684426
 F      5.9830457092    -2.3639845014     1.5270334981
          14
Energy: -53.97416085308953 Kcal/mole
 H      2.5195281036     0.6668772721     3.3928223437
 F      2.8411773799     0.4811361157     4.2312321277
 H      5.9021747838    -1.1422565980     4.2899742582
 F      6.0786269469    -2.0069675891     4.0409189712
 H      2.0860420887     0.1859621868     1.1547988076
 F      2.1558633661     0.8606942911     1.7718487056
 H      4.4627644930     0.4749170508     4.5300266701
 F      5.3737457022     0.4013369465     4.6047809663
 H      2.5574374778    -1.8611594371     0.3815944541
 F      2.0355126419    -1.1358441037     0.1756791005
 H      4.4895695191    -2.8221890416     1.0861477959
 F      3.6073880151    -3.0205276631     0.9334828513
 H      6.1050111237    -2.2558424151     2.4282200969
 F      5.9982271641    -2.3543712980     1.5228040350
          14
Energy: -54.01907995255536 Kcal/mole
 H      2.5431633015     0.7220818229     3.3449956693
 F      2.7756299910     0.4958123218     4.2026962879
 H      6.0072683119    -1.1422619678     4.4566489947
 F      6.3148819519    -1.9307966989     4.1038376764
 H      2.0976906549     0.2610369903     1.1266355880
 F      2.2089998826     0.9463019406     1.7257275706
 H      4.3490105184     0.3958764091     4.6938358193
 F      5.2424035728     0.2834467526     4.8673219070
 H      2.5237297312    -1.8306529977     0.4036157353
 F      1.9734587704    -1.1219722029     0.2142420290
 H      4.4824553735    -2.6946143338     1.1294677517
 F      3.6410965262    -2.9690689144     0.8893032803
 H      6.1328750069    -2.0565468475     2.4780340898
 F      5.9385610046    -2.0806611218     1.5821827795
          14
Energy: -53.956351756137195 Kcal/mole
 H      2.5617472918     0.5246133961     3.4034236611
 F      2.7651526627     0.3444338046     4.2792378936
 H      6.0079306714    -1.1151866114     4.4709738954
 F      6.3273808238    -1.9077970449     4.1383941293
 H      2.1868051718     0.1149245716     1.1685040076
 F      2.3497295944     0.7841925854     1.7738344613
 H      4.3719378666     0.3431185033     4.7154821658
 F      5.2749585253     0.2830842986     4.8632610014
 H      2.5099844847    -1.8891930049     0.3083416387
 F      1.9918144428    -1.1496393390     0.1488136380
 H      4.4384402923    -2.8505077324     1.0375809548
 F      3.5875293021    -3.0569864089     0.7651730935
 H      6.1168444108    -2.1766055271     2.4908498161
 F      5.8683362876    -2.2508064388     1.6112891659
          14
Energy: -54.031024997898584 Kcal/mole
 H      2.5887948310     0.4561361522     3.3460328706
 F      2.7720666975     0.2290278951     4.2153557465
 H      5.9759392107    -1.1951589477     4.3819402634
 F      6.2928356203    -1.9861793520     4.0431890486
 H      2.1583959959     0.0701063086     1.1517154305
 F      2.3655871146     0.7493500746     1.7318781204
 H      4.3585672736     0.2619374236     4.7167498794
 F      5.2642354350     0.2189241802     4.8538777117
 H      2.4465714766    -1.9738543630     0.3428449526
 F      1.8770332240    -1.2660737467     0.2180980970
 H      4.4599596828    -2.8232469262     0.9949581579
 F      3.6122436322    -3.0793078377     0.7568419947
 H      6.1115902305    -2.1685863619     2.3956821466
 F      5.8924441990    -2.2309221085     1.5074376580
          14
Energy: -53.97022886648257 Kcal/mole
 H      2.6071296364     0.3937496744     3.2450819645
 F      2.8429361972     0.0833113232     4.0750893717
 H      5.9887802822    -1.2136039825     4.4388622760
 F      6.3250219492    -1.9723579269     4.0488327987
 H      2.0543367315     0.1273970050     1.1454618499
 F      2.2374195867     0.8149919639     1.7238932120
 H      4.3856533962     0.2186364027     4.7065877896
 F      5.2689746747     0.1627340554     4.9463948924
 H      2.4136373756    -1.9858873315     0.3979929961
 F      1.8665837499    -1.2593074206     0.2809333371
 H      4.3930276888    -2.8347015558     0.9499418885
 F      3.5598446716    -3.1226031732     0.6973399909
 H      6.0087086828    -2.0770588327     2.4387350627
 F      5.7661843543    -2.0854034383     1.5544266789
          14
Energy: -54.00620520855115 Kcal/mole
 H      2.5408473293     0.4646462414     3.3584135978
 F      2.7129183353     0.2376425414     4.2300499263
 H      5.9454469067    -1.2515724202     4.4782703515
 F      6.2881694467    -1.9770160909     4.0342413647
 H      2.1169041068     0.0555546043     1.1953656520
 F      2.3793150342     0.7616715934     1.7182693744
 H      4.2653301113     0.2025076512     4.8598878034
 F      5.1472765736     0.0730189728     5.0750438392
 H      2.3388749422    -2.0660805297     0.4950379597
 F      1.7712838197    -1.3500914922     0.4170058137
 H      4.3584806207    -2.8231474000     1.0396852167
 F      3.5521470214    -3.1686780175     0.7726202077
 H      5.9955033125    -2.0357314166     2.4144401931
 F      5.7118088621    -2.0060856583     1.5429313935
          14
Energy: -54.01982896070656 Kcal/mole
 H      2.4894795489     0.6338262527     3.4542241952
 F      2.6761993447     0.4460189354     4.3321496644
 H      5.7448192361    -1.3573688067     4.4473694992
 F      6.0156477275    -2.1350499719     4.0439430083
 H      2.0974996121     0.0512434337     1.3532084423
 F      2.3539315399     0.8025120710     1.8122586586
 H      4.2390484028     0.2626022103     4.8196604616
 F      5.1146020243     0.0544836076     4.9956760948
 H      2.2788905409    -2.0827327644     0.6616329196
 F      1.6928152290    -1.3777549716     0.6413587903
 H      4.3374158934    -2.9331002082     0.9761021347
 F      3.4937155890    -3.2222491815     0.7629081676
 H      5.9245038258    -2.2578524746     2.3880140699
 F      5.7559464275    -2.2542083087     1.4866461519
          14
Energy: -53.976939273448 Kcal/mole
 H      2.5284714180     0.5761716394     3.4555249128
 F      2.7029434142     0.4228825641     4.3426274896
 H      5.7760822017    -1.3344426453     4.4294072415
 F      6.0052481745    -2.1175993739     4.0110324150
 H      2.0979205304     0.0833978812     1.2659999709
 F      2.3694908282     0.7731344394     1.8058166562
 H      4.2705830973     0.2662841775     4.8717370878
 F      5.1415798892     0.0538859116     5.0644559637
 H      2.2552479765    -2.0692480950     0.5334560688
 F      1.7041649070    -1.3382498732     0.4801827152
 H      4.2713580754    -2.9014632337     1.0139671942
 F      3.4316865785    -3.2169562509     0.8234286589
 H      5.8708357279    -2.2065300975     2.3792290466
 F      5.6903169544    -2.2310848330     1.4805082683
          14
Energy: -54.006111887060555 Kcal/mole
 H      2.5611437720     0.5809159679     3.4215658431
 F      2.7308874915     0.3727574205     4.2983475085
 H      5.8364664909    -1.3178637433     4.3689750060
 F      6.1295030133    -2.0997872322     3.9900102926
 H      2.1492811788     0.0803514485     1.2129172019
 F      2.4080957653     0.7623992554     1.7685382948
 H      4.2920856698     0.2330956656     4.7594221392
 F      5.1808242795     0.0799335386     4.9254764872
 H      2.4021131454    -2.0204541621     0.3813740992
 F      1.8528293303    -1.2906147944     0.3006846468
 H      4.3186337812    -3.0465673780     0.8947741689
 F      3.4732853115    -3.2514553735     0.6044366515
 H      5.9319599044    -2.3878924811     2.3758445116
 F      5.7448960772    -2.4932805348     1.4843348467
          14
Energy: -54.01739057752303 Kcal/mole
 H      2.5566383134     0.4773727150     3.3860494642
 F      2.7213121685     0.2492387304     4.2588188533
 H      5.8772749467    -1.3040212634     4.4447628082
 F      6.2204473533    -2.0471979635     4.0314710327
 H      2.0821747605    -0.0129213081     1.2333402034
 F      2.3340632748     0.6910156175     1.7642959276
 H      4.2776735895     0.1826551951     4.8054380547
 F      5.1601200491     0.0417617641     5.0111715887
 H      2.3468714970    -2.0988386416     0.4392773995
 F      1.7384920539    -1.4128031575     0.4283793337
 H      4.4174974712    -2.9117665475     0.9281273752
 F      3.5961515877    -3.1841223618     0.6246438499
 H      6.0177520095    -2.2086663746     2.4144493387
 F      5.8361285000    -2.2612463462     1.5171549348
          14
Energy: -53.96246622852375 Kcal/mole
 H      2.4499546510     0.4716085981     3.3785663685
 F      2.7093789565     0.2214600317     4.2217826660
 H      5.9705539523    -1.2416020690     4.3410069368
 F      6.2427803668    -2.0478166640     3.9992470708
 H      1.9602624924    -0.0246744765     1.2825140836
 F      2.1785011793     0.7154357432     1.7779913669
 H      4.3213463123     0.2202592134     4.6825289995
 F      5.2252924204     0.1513359268     4.8204420667
 H      2.2970138817    -2.2012979525     0.5892838207
 F      1.6862802058    -1.5175199491     0.5708171146
 H      4.4061192537    -2.9465282521     1.0197622638
 F      3.5660091237    -3.2660807044     0.8381302191
 H      6.0480029008    -2.2419812004     2.3643595674
 F      5.8575218691    -2.3029772749     1.4694375286
          14
Energy: -54.00316087046154 Kcal/mole
 H      2.5466349942     0.5633025046     3.3525152448
 F      2.7156850639     0.4512065059     4.2468001888
 H      5.7643378221    -1.3006649560     4.3690203811
 F      6.0036860546    -2.1064434955     4.0025202188
 H      2.1419487608    -0.0940604965     1.2196748378
 F      2.3997337761     0.6286567254     1.7217860834
 H      4.2836328212     0.2956915523     4.7410903953
 F      5.1666909724     0.1408743356     4.9337790849
 H      2.3479642678    -2.1877098790     0.4659665378
 F      1.7209898802    -1.5191913787     0.4955491693
 H      4.4029335022    -2.9714150559     0.8497127239
 F      3.5815031142    -3.2819393241     0.5856752333
 H      5.9211559786    -2.1846170378     2.3534262351
 F      5.7643291931    -2.2201420226     1.4506348225
          14
Energy: -53.97511878702255 Kcal/mole
 H      2.4702506738     0.6206029946     3.3933985574
 F      2.6410161525     0.4951670484     4.2855835016
 H      5.7383014737    -1.3187276457     4.3549618463
 F      5.9586044021    -2.1340660605     3.9977799753
 H      2.1074326347    -0.0639101982     1.3427761667
 F      2.3517322020     0.7093844990     1.7708205951
 H      4.2095074848     0.3217830859     4.7034703982
 F      5.0999090531     0.1400795589     4.8261809330
 H      2.4225889782    -2.1623623092     0.4401106450
 F      1.7752680788    -1.5463230787     0.6459268726
 H      4.5512586279    -2.8835348684     0.5928174744
 F      3.7528376714    -3.1341693885     0.2178570584
 H      5.9214605174    -2.2953259334     2.3627965858
 F      5.8588432427    -2.3198039551     1.4482645178
          14
Energy: -54.041027405650865 Kcal/mole
 H      2.5311295199     0.5504573013     3.3938429417
 F      2.7059439262     0.4388564770     4.2870809723
 H      5.6958097132    -1.4035744679     4.3709341102
 F      5.9154933604    -2.2076696615     3.9887574299
 H      2.0749410693    -0.0888103586     1.2655986039
 F      2.3495421422     0.6345218041     1.7578118028
 H      4.2770094316     0.2767366777     4.7203390430
 F      5.1557966806     0.0804758712     4.8938431262
 H      2.4087388405    -2.1624717133     0.4496986784
 F      1.7424193914    -1.5397939971     0.5455102303
 H      4.4887051284    -2.9664098355     0.7299279526
 F      3.6731326405    -3.2381022921     0.4106886599
 H      5.9228210836    -2.3133590914     2.3422298450
 F      5.8424867751    -2.3360829279     1.4290381750
          14
Energy: -53.96185147227115 Kcal/mole
 H      2.5713200068     0.5398920626     3.3514211638
 F      2.7337207129     0.3776705264     4.2392269893
 H      5.9338993357    -1.3588719874     4.3943988033
 F      6.2311212508    -2.1209422558     3.9799147393
 H      2.0631415036    -0.1345476331     1.3119780421
 F      2.3434391485     0.6244791097     1.7434877570
 H      4.3142335214     0.2120929690     4.7011778699