          6
Energy: -3.8981934067495194 Kcal/mole
 Kr     2.6175869661     5.3955963855    -6.5139099047
 Kr     0.4730557515     2.3529884700    -4.9348070923
 Kr     0.0901323676     8.4795929820    -7.3436500937
 Kr    -1.1149948064     4.6290725947    -7.9012442705
 Kr     2.5253780537     8.6227374613    -4.0702422691
 Kr    -0.6840035541     6.1395132235    -4.1606935923
