          6
Energy: -0.09144194267647339 Kcal/mole
 Kr    -0.2591004611    -1.3256280680     4.8076689570
 Kr    -5.6328601882    -1.4110166831    -1.2272516421
 Kr     4.9026275880    -2.2654800960    -2.8315122416
 Kr    -5.8304662010     3.4837227743     4.7885256870
 Kr     2.2849411997     5.5022816301    -3.5423864835
 Kr    -4.8969979584     4.6937202796    -6.0198966513
