          6
Energy: -0.8756805110988438 Kcal/mole
 Kr     7.2049996757     5.4288416103    -5.0234879175
 Kr    -5.7362798474    -2.2555499697     3.8996643538
 Kr     2.6498344955     2.1565846044    -2.1798202229
 Kr    -7.1184132504    -5.9589263060     1.9850699979
 Kr    -3.7635478688    -8.9003376206    -1.7758023589
 Kr    -3.4946098102    -5.5252536757     1.8458908406
          6
Energy: -0.43975005342946893 Kcal/mole
 Kr     1.2786909172    -3.9846340457    -3.3822804293
 Kr    -6.8995077291     1.8381496941    -5.9632070071
 Kr    -0.1338677841    -2.4648879429     0.6628194984
 Kr    -7.3800841368     3.4920382098     7.0224207497
 Kr     2.5913859049     5.7255677751     6.4403123483
 Kr    -0.7080945633     1.8938257853     6.9955808040
          6
Energy: -0.6109736415707078 Kcal/mole
 Kr    -0.0812956814    -4.2692211984    -4.5953788186
 Kr     1.6843422428    -2.9627149164    -8.3106754057
 Kr    -5.5829010179     6.8052515723    -0.8748914264
 Kr    -3.9355334800     0.1575193248     8.7212642095
 Kr    -7.8026127195     8.6631214024    -3.5701496988
 Kr     1.9516723747    -4.7252703318     6.4320973563
          6
Energy: -0.7173271370550248 Kcal/mole
 Kr    -5.6141612601     0.3134420294    -4.2539622512
 Kr     5.8104519591    -3.1576637081     6.9706806348
 Kr     1.2652330193    -8.6864671800     1.5625066057
 Kr    -0.5032087609    -3.5535483752    -1.0570783197
 Kr    -6.2819527512     4.3291921949    -5.1567900623
 Kr    -3.3509433197    -3.8673324587     2.2789026118
          6
Energy: -0.3644596781113417 Kcal/mole
 Kr    -6.5904521170     8.2220351161     3.7321810754
 Kr     1.9029959882    -3.3414280773    -0.7435919584
 Kr     7.1717248986     1.0435197052     0.2306930827
 Kr     7.5952969628     4.4503765261    -2.3809692829
 Kr    -3.8087351082     2.3425329590     5.7312567644
 Kr    -2.9807995853     6.5361964490    -3.7023819579
          6
Energy: -1.4971048494044785 Kcal/mole
 Kr    -0.1440171597     3.6934066381    -4.4118263269
 Kr    -2.7173599076     2.4325467577    -1.6618180571
 Kr     0.3224301471    -0.6849572959     1.3455798369
 Kr     0.4969648638    -1.8240332681    -2.7014859826
 Kr     0.6100410358    -3.7163812993    -6.1236165300
 Kr    -0.4746448170     7.8061952298    -1.6818100299
          6
Energy: -2.2673888693984283 Kcal/mole
 Kr    -0.9431550418     1.2189967639    -5.1637742936
 Kr     0.8970188820     2.4762511503     2.3029624562
 Kr    -0.5425897159     0.1938588114    -0.8997271549
 Kr    -1.6413002945     3.8076170982    -1.6215992301
 Kr    -0.6785047216     0.9966916046     7.5607219302
 Kr     2.1244833594     3.7478875483    -1.5641100574
          6
Energy: -3.4067528526009783 Kcal/mole
 Kr    -0.3329720638     4.1254662947    -5.3898854174
 Kr     4.9794798206     2.8086779361    -0.7690258682
 Kr     3.0937263666     1.8793721023    -4.7721709876
 Kr     2.8248757166     5.5432904806    -2.7064618178
 Kr     0.5995218867     2.4192000001    -1.3562354970
 Kr     3.0158714602    -0.5103776592    -0.5547470368
          6
Energy: -3.8811697827189793 Kcal/mole
 Kr     1.6997703876     4.4305839949     2.4267240823
 Kr     5.8145968818     4.2700856096    -1.4227612094
 Kr     3.8173859725     7.3812553486     0.6747590581
 Kr     5.9210141904     4.4327458544     2.4859663273
 Kr     3.5225516150     1.5689326958     0.2193962380
 Kr     1.7667261803     4.9118296264    -1.6763355754
          6
Energy: -4.028601694617812 Kcal/mole
 Kr     1.5996709665     4.5060786598     2.3702240331
 Kr     5.8911653108     4.6708399751    -1.4062701912
 Kr     3.8914887012     7.4297376757     0.7893784427
 Kr     5.6412560345     4.2562182062     2.6215126569
 Kr     3.5938160163     1.7354076972     0.1611207773
 Kr     1.8568915450     4.9302683710    -1.6468752046
