          6
Energy: -0.38254204706168193 Kcal/mole
 Kr     6.7404792959    -3.4572891953    -0.4834706467
 Kr     4.9632881636    -4.9180619231    -5.9473875906
 Kr    -5.9359910813    -5.6790220569     0.9777784462
 Kr     4.1543116737    -1.7316917948     4.1356830996
 Kr     1.1457261375    -4.2233569480    -1.4296389381
 Kr     1.4863468196     3.5794403591     0.7676806388
          6
Energy: -0.8916036838528808 Kcal/mole
 Kr     5.4453905338     3.4262671250     8.3735950088
 Kr     5.9286222801    -8.1845495092     7.3008399071
 Kr     5.5908383393    -4.9388867709     2.9642151554
 Kr     7.7783535706    -8.7674062594     3.6462203066
 Kr    -8.2675663807     0.1463886407    -2.4374774669
 Kr     1.0318037534    -6.9965087963     6.5363579698
          6
Energy: -0.22430085936697688 Kcal/mole
 Kr    -1.2120855739     3.9432526249    -3.2924640264
 Kr     6.8061453007    -8.4432516746    -3.3341200761
 Kr     3.6123584051     6.1925275119     7.6140836652
 Kr    -5.5102304196    -2.3103254650    -1.9857155565
 Kr    -6.4712668790    -5.7998761567     5.0241247063
 Kr     1.4305545657     3.3258356292     4.3781047619
          6
Energy: -0.8933189508614148 Kcal/mole
 Kr     8.9855926107    -8.0453947127     4.4457794481
 Kr     6.8454613359    -5.7704193164     6.5122945115
 Kr     2.6056043182     1.5574415361     4.5050923093
 Kr     2.6781878683    -4.5919424532     7.2171887282
 Kr    -2.6980775150     0.8643488317     1.7639224769
 Kr    -4.8752001378    -1.3179034825    -0.7653174898
          6
Energy: -2.0984501940526528 Kcal/mole
 Kr     4.7166740004     5.1181912180    -6.9508581034
 Kr     7.3722426249     7.8508820344    -8.5150700326
 Kr     1.8857689806     1.9385481683    -7.3043090555
 Kr     5.3001767626    -0.8660493934    -6.9856280428
 Kr     8.9238110295    -1.8158869557    -8.8344601891
 Kr     8.3756822312     1.8899119167    -7.9742137929
          6
Energy: -1.3539399169355377 Kcal/mole
 Kr     1.2770504782     3.4947702946    -3.9751734068
 Kr     2.3012424257    -5.5038920339    -8.5512422896
 Kr     1.5541550297    -5.3122437991    -1.9133607384
 Kr     2.6584290485    -0.2950532679    -4.1077895538
 Kr     1.2044467418     7.4108293205    -5.8664376208
 Kr    -0.0319569092     6.5396148789    -1.6659550581
          6
Energy: -3.3949934645214537 Kcal/mole
 Kr     2.2179943925     5.3057304808    -5.6394370449
 Kr     0.8537436721     2.6091247031    -2.8724976600
 Kr    -0.6383431022     7.0859438245    -8.7949914584
 Kr    -0.7622609388     3.0672587000    -7.0327543764
 Kr    -0.1418159056     8.5889983201    -5.0203226439
 Kr    -1.8584802364     5.1995835706    -3.8104595643
          6
Energy: -3.5179961332980083 Kcal/mole
 Kr     1.9070014468     3.1141717601    -4.6916836092
 Kr     2.9217417775     5.3108486617    -1.6620718746
 Kr    -2.1647778846     2.9566633841    -5.8282040539
 Kr    -0.9553774252     3.8453256905    -1.9540446899
 Kr     3.2503825573     6.7433505849    -5.7038531295
 Kr    -0.8112072922     6.6599018244    -4.5073947258
          6
Energy: -3.7782208098881718 Kcal/mole
 Kr     2.7362674079     5.3173552549    -6.6245833430
 Kr     0.5435125840     2.3294653303    -4.9038076023
 Kr    -0.0011914128     8.5675684648    -7.3637868467
 Kr    -1.2050349990     4.7502404007    -7.7195040290
 Kr     2.4842707499     8.4648716464    -4.0695846522
 Kr    -0.5433393365     6.1169841412    -4.1341321232
          6
Energy: -3.8981934067495194 Kcal/mole
 Kr     2.6175869661     5.3955963855    -6.5139099047
 Kr     0.4730557515     2.3529884700    -4.9348070923
 Kr     0.0901323676     8.4795929820    -7.3436500937
 Kr    -1.1149948064     4.6290725947    -7.9012442705
 Kr     2.5253780537     8.6227374613    -4.0702422691
 Kr    -0.6840035541     6.1395132235    -4.1606935923
