          4
Energy: -1.4879134410056345 Kcal/mole
 Xe    -1.2684687456    -3.1730154163     9.2123422815
 Xe    -5.5382452882    -1.3219065084     2.3120688855
 Xe    -2.1667339379    -2.8075375484     4.5619644640
 Xe    -1.7654701686     0.7541759038     8.0812892291
          4
Energy: -1.0152536325039583 Kcal/mole
 Xe     1.5587959026     0.6245706948     2.0346853717
 Xe     4.8471891006     3.1992817016     5.4044548109
 Xe     7.0304839416     7.9060179713     4.4959400713
 Xe    -0.8846147776     1.1011988818     5.9067836202
          4
Energy: -2.0882694849837997 Kcal/mole
 Xe     4.6220490115    -5.8068513954     2.8458923418
 Xe     0.8741651664    -4.0457537172     3.8178249533
 Xe     0.5965687588    -8.2636709487     3.6325750517
 Xe     3.4185889310    -9.4747936944     0.4757849950
          4
Energy: -0.4631539002711993 Kcal/mole
 Xe    -3.7313489067    -7.4214767677     4.9954383754
 Xe    -1.8569530239    -5.4950626215     1.2133801009
 Xe    -4.1142214748     0.8821406198    -0.8871346843
 Xe    -7.4739001446     7.2964360333     8.3470098796
          4
Energy: -1.8181394583430612 Kcal/mole
 Xe     2.5186482525     7.8390346645     4.6544710232
 Xe    -0.6237217138     3.5505651131    -0.5750761814
 Xe    -1.6512432469     6.9227487663     2.7295001942
 Xe     1.7440970923     3.2482745659     3.6081732255
          4
Energy: -2.2998799667277465 Kcal/mole
 Xe    -1.1048491544     3.5274793910     4.6040527322
 Xe    -2.6955720806     6.0176573480     1.1740496652
 Xe     0.9228980081     3.5013213905    -0.0704516752
 Xe     1.0791366546     7.3058780595     2.6288286949
          4
Energy: -2.365784096926367 Kcal/mole
 Xe     7.8666883255    -0.1964626528    -1.1825286755
 Xe     4.1504403197    -0.8895708488     0.8401222309
 Xe     3.9962438965     1.8181130232    -3.2587815849
 Xe     5.7146248242     3.1304619481     0.8656945492
          4
Energy: -2.4718342896975907 Kcal/mole
 Xe     6.7033052700     1.8199981399     5.1256208268
 Xe     8.4633102411     4.7498246349     1.8393682057
 Xe     4.3453729221     5.0124167410     3.6041864797
 Xe     5.4758834456     1.5969145335     0.7220605832
          4
Energy: -2.4709323870818833 Kcal/mole
 Xe     2.8163315648     3.3737724549    -0.2926842339
 Xe     6.8244270135     2.8796781008     1.1889494721
 Xe     3.2360422030     2.8149595254     4.0653021676
 Xe     4.8441662723     6.7457290829     2.5207461216
          4
Energy: -2.5978203271922897 Kcal/mole
 Xe     3.0297699264     3.5859518203    -0.3039172300
 Xe     7.0342747563     2.7983133000     1.3971892121
 Xe     3.4593426496     2.6499949677     3.9946824697
 Xe     4.8869728221     6.5289347813     2.4066808672
