          4
Energy: -2.5975748757952295 Kcal/mole
 Xe     2.3253619138    -9.2374500432     1.1774920607
 Xe     3.8989386098    -5.6768310628     3.2540012819
 Xe     6.5570686663    -9.1235811632     2.4997712569
 Xe     3.3023467306    -9.4470655110     5.4667290755
