          4
Energy: -0.04431666430942416 Kcal/mole
 Xe     6.0708740052     1.6548091002    -4.5618390650
 Xe    -4.3621379512    -0.5847667402     4.5102332062
 Xe     4.2774070921    -1.8497414833     6.3910191641
 Xe     3.2181006160    -5.8720603283    -3.4502077738
