          4
Energy: -2.5978203271922897 Kcal/mole
 Xe     3.0297699264     3.5859518203    -0.3039172300
 Xe     7.0342747563     2.7983133000     1.3971892121
 Xe     3.4593426496     2.6499949677     3.9946824697
 Xe     4.8869728221     6.5289347813     2.4066808672
