          4
Energy: -2.5977866555951863 Kcal/mole
 Xe     2.4643311552     3.9914727522    -3.3017983319
 Xe     3.0663750184     8.3057628224    -4.0862101516
 Xe     4.9871705463     5.2930248880    -6.6779195975
 Xe     6.3830622900     5.8544222514    -2.5163351050
