          4
Energy: -2.5978230853320183 Kcal/mole
 Xe    -0.9769781033     3.5310671950    -4.0592327828
 Xe     3.3861526074     3.4842987415    -4.7014067694
 Xe     1.5257261955     0.4777360239    -2.0507707248
 Xe     0.8712212013     0.2791963208    -6.4101640985
