          4
Energy: -0.41397108999603727 Kcal/mole
 Ne    -1.3618418476     6.4557139738     1.6939834994
 Ne    -3.5083502786     4.8611868685     3.2976591091
 Ne    -1.6546948155     6.8822198794     4.7759734735
 Ne    -0.4807484527     4.2123230860     3.6836290405
