          4
Energy: -0.41392867819454043 Kcal/mole
 Ne    -3.9791302769    -2.1720066224     5.1588234364
 Ne    -1.3060645700    -3.5615091202     4.2923950883
 Ne    -3.9996625114    -4.3420158112     2.9252343287
 Ne    -3.4636869496    -5.1665497870     5.8816841182
