          4
Energy: -0.006846841309520516 Kcal/mole
 Ne    -1.7599302802    -0.0453869808     1.7085083640
 Ne    -2.1050096129    -2.6121055109    -4.7099794082
 Ne     4.6279561477    -1.9134372835     1.5974759199
 Ne    -4.3758782226     3.9765772916    -1.5332604797
