          4
Energy: -0.4139252562702521 Kcal/mole
 Ne     0.1718579134     3.5603497052     1.4690767190
 Ne    -1.3733597887     2.3214363633    -0.9327633368
 Ne     0.4258639780     0.5098036999     0.8480776242
 Ne     1.7342151761     2.6230834002    -1.0563588169
