          4
Energy: -0.4139410666678837 Kcal/mole
 Ne     3.8650104874    -2.5713378160     4.4255162272
 Ne     1.2855764838    -1.4088322280     3.1389329187
 Ne     3.9967562238    -1.2838506656     1.5883699039
 Ne     3.5547524020     0.5127787053     4.1019482154
