          16
Energy: -62.280989742227305 Kcal/mole
 H     -1.1258053844     2.3091179345    -5.5725331842
 F     -1.6017307078     2.4076157936    -4.7949200038
 H      0.4504723072     2.8652945170    -6.9988151153
 F     -0.1691671734     2.1963468254    -6.9016302398
 H     -1.6910276595     1.1595491889    -3.7126563405
 F     -1.7191823691     0.4853677327    -3.0917089381
 H      0.4768961046     1.5149043181    -0.6326369378
 F      1.3138442055     1.8436145023    -0.8125160396
 H      1.4537894827     2.0593608373    -2.4211634361
 F      1.4228852566     2.1648259071    -3.3315540379
 H     -1.3798001042     0.7343522021    -1.4811114151
 F     -1.0739861557     0.9423029089    -0.6419908443
 H      2.0480232008     4.1244667399    -6.1234622985
 F      1.5829175931     4.0752348868    -6.9122220834
 H      2.2931809158     3.3469200628    -4.0907621990
 F      2.6983910466     3.9936551303    -4.5991198511
