          6
Energy: -0.25401301953589844 Kcal/mole
 He    -1.8015190437    -0.0290329684     6.2300140874
 He    -3.8184013761     0.8053571607     4.3780693870
 He    -3.1838912179     3.5198655381     4.9694808074
 He    -3.8793826898     1.7191225438     7.0662331182
 He    -1.1252703276     1.7470469108     4.1221362988
 He    -1.1741819031     2.7019392356     6.8059885137
