          6
Energy: -0.24587978184195794 Kcal/mole
 He    -1.2655477617    -3.9512734967     0.9471073925
 He    -2.5585479634    -1.4212729540     1.3031958654
 He    -2.8156522819    -5.5323094802    -0.8612526790
 He    -4.1124152083    -3.7818048726     1.0157418563
 He    -0.2165383499    -1.6168604381    -0.3535447695
 He    -2.6774335632    -2.7202085222    -1.2562890695
