          6
Energy: -1.3391341387294846 Kcal/mole
 Xe     1.1174783645    -1.8666974186    -5.0247120768
 Xe     6.5664708574    -3.7594295031     2.4864978432
 Xe    -0.0390704493    -5.9267882847     0.9829581323
 Xe    -3.3172067528    -0.0447837801     2.3350150812
 Xe     0.6197633292     5.2902436366     2.9751351161
 Xe     0.6574142216    -1.0872413210     0.3045743928
          6
Energy: -1.2491466161604114 Kcal/mole
 Xe     5.9156019376     1.7390572964    -3.0363111957
 Xe     3.7949247683    -0.3407025808    -0.4407028455
 Xe     6.0412220998    -5.1934925077    -5.2502741909
 Xe     2.4898497298    -0.4555731515     5.5470539453
 Xe     0.7744404393     1.8535820980    -4.4678227810
 Xe     2.6452275577    -6.0664396843    -2.1786993403
          6
Energy: -1.355369566391523 Kcal/mole
 Xe     4.9800767028     7.1986113106     6.5281149471
 Xe    -2.9782852835     1.3371467066    -6.7507142715
 Xe    -4.1008413062    -2.9708314300    -7.5204086888
 Xe     0.6058533456     3.2542116653    -4.6656228355
 Xe     5.7094991818     9.3541219022    -7.8478073445
 Xe     5.9328955210     4.4824935602    -6.6467012705
          6
Energy: -1.632718736972194 Kcal/mole
 Xe     6.2861652499     6.7761338036     0.4008889911
 Xe     8.3597749185     6.8869972256     6.4243803962
 Xe     0.6899533596     7.1144008003    -6.0370627265
 Xe     7.0945947366     1.7656313641    -9.3692476969
 Xe     2.0954037096     3.7402034424    -8.3368747363
 Xe    -1.7808013720     5.5711527459    -9.2854441079
          6
Energy: -3.1627712184838788 Kcal/mole
 Xe     5.0826110758     0.5090262519    -7.9295458561
 Xe     6.6421370324    -3.8748386195    -8.5512193577
 Xe     0.4767969803    -0.7223657410    -7.4596245957
 Xe     2.7457723641     2.5437781660    -5.2724518262
 Xe     3.1062982742     7.3057450103    -5.7321529617
 Xe     4.4742264574    -1.7552723370    -4.6929473020
          6
Energy: -3.7788722841606015 Kcal/mole
 Xe     4.9807041632     7.7663181646     0.3548930410
 Xe     2.7128562094     4.1196699489    -8.6362357029
 Xe     0.5582882692     6.2181145586    -5.7131120631
 Xe     1.9161713152     9.5358774650    -2.4840305472
 Xe     5.0487643957     5.3144089763    -4.2281544062
 Xe     0.8955525014     5.5363599978    -1.5548278604
          6
Energy: -4.773614467200489 Kcal/mole
 Xe     3.2451888590     3.5867349497     3.4339034209
 Xe    -0.5371065751     3.1560859059     0.8018120268
 Xe    -1.2849989827     6.6220085608    -1.7351860511
 Xe     1.3781245961     3.1522239241    -3.8426196544
 Xe     3.1469007346     0.7214522569    -0.5818129554
 Xe     2.9393858758     5.7363012275    -0.6494877767
          6
Energy: -5.143555990560299 Kcal/mole
 Xe     4.2707082770     5.7643205405     0.8192392787
 Xe     0.2006335015     4.2986600406    -0.2497814559
 Xe     1.0394806133     6.8624264474     3.4436124266
 Xe     1.2350684774     8.5240563006    -0.4852233433
 Xe     2.9568350694     5.5735250048    -3.4533327325
 Xe     5.5574032167     9.1089229078    -1.4357732769
          6
Energy: -5.3883475152353695 Kcal/mole
 Xe     6.4355734054     4.5671579768    -0.7064629431
 Xe     3.4200371677     1.9495588847     1.1857765143
 Xe     5.4922476778     4.9967422210     3.6776737317
 Xe     1.2718722973     5.7706295778     2.6275166589
 Xe     1.9775699442     5.1233669983    -1.6293558356
 Xe     4.2674287712     8.2265183792     0.5202398666
          6
Energy: -5.5013554114810885 Kcal/mole
 Xe     6.3760845580     4.6310221765    -0.6900335616
 Xe     3.4720849447     2.0227409193     1.3518460905
 Xe     5.5436216692     5.2317674104     3.5716384832
 Xe     1.2546712892     5.5825948661     2.7103989221
 Xe     2.1157263716     4.9953809660    -1.5546194994
 Xe     4.1557710710     8.1948112221     0.6368192022
