          6
Energy: -5.5013554114810885 Kcal/mole
 Xe     6.3760845580     4.6310221765    -0.6900335616
 Xe     3.4720849447     2.0227409193     1.3518460905
 Xe     5.5436216692     5.2317674104     3.5716384832
 Xe     1.2546712892     5.5825948661     2.7103989221
 Xe     2.1157263716     4.9953809660    -1.5546194994
 Xe     4.1557710710     8.1948112221     0.6368192022
