          6
Energy: -5.326262719418913 Kcal/mole
 Xe    -4.5466309449     7.2249637064    -4.8435722364
 Xe    -4.8143455576     9.3136302531    -8.6974379636
 Xe    -4.3144787402     4.9238750720    -8.5976440764
 Xe    -6.5468787613     3.2843318640    -5.1818859944
 Xe    -8.1531782885     6.7293339937    -7.4214347521
 Xe    -8.5170781140     6.6061807444    -3.0441081137
