          6
Energy: -1.3072569482974161 Kcal/mole
 Xe    -2.2531808046    -8.0013918300    -3.1289200764
 Xe     3.7775405825    -9.9602094802     4.6788551490
 Xe     1.7823706135    -9.8574557814    -8.2272199229
 Xe     8.2899743785    -9.6959323192     6.1154667267
 Xe    -4.9528669815    -8.3065631397    -7.2754255586
 Xe     0.3041094091    -5.0418574792    -8.4627670801
          6
Energy: -1.2791946084455303 Kcal/mole
 Xe    -6.3960879194    -0.4902321878    -0.0142916476
 Xe    -9.6528046150    -3.5534848713    -1.8247031415
 Xe    -4.4940561117    -4.9443914943     4.1393429909
 Xe    -8.7755078614     3.4564823823    -0.3054435686
 Xe     8.4968907842    -6.1865435244    -8.8258554655
 Xe    -0.9620716406    -8.3458571126     4.3303015208
          6
Energy: -4.170364043440264 Kcal/mole
 Xe    -3.2996092074     7.1204326006    -1.5305120246
 Xe    -2.8221369807     2.6477218490    -0.0262760589
 Xe     1.9794220261     2.1733423126     1.1321068644
 Xe    -2.9171875195     3.3436666832    -4.0936247086
 Xe     1.0069930063     4.7170765048    -2.0017288179
 Xe     0.7987029788     6.0596187471     2.0329859846
          6
Energy: -3.3018441293834577 Kcal/mole
 Xe    -2.5869563968     2.7971769850    -2.5364990818
 Xe    -6.3553371718     3.2583288755    -3.3403570216
 Xe    -4.3946247977    -0.7711643432    -3.8388638934
 Xe    -3.1300841821     4.7145714325    -6.7058211343
 Xe    -9.4553431014     0.9738715278    -1.0298583822
 Xe    -7.1817236021     1.2125482406    -6.9815845174
          6
Energy: -4.5298893417373565 Kcal/mole
 Xe    -8.7716240802     1.3820523897     1.2502195971
 Xe    -5.8163785285     1.0423363710    -2.9830462650
 Xe    -5.8292517968     7.5326528812    -0.5365080008
 Xe    -4.4454764094     3.1278449923     0.7211239863
 Xe    -4.5440836972     4.8123074764    -3.8420935607
 Xe    -8.6549840918     4.6709409628    -1.7740579549
          6
Energy: -4.735903492987337 Kcal/mole
 Xe    -6.1349468803     5.6878754410    -3.6852400212
 Xe    -8.1467636456     5.5286437092    -7.6412917916
 Xe    -4.3536355474     9.7808853991    -3.3568702370
 Xe    -4.1565387781     2.9319753589    -6.6194550519
 Xe    -3.9689149324     7.9168219342    -7.1271939731
 Xe    -7.5954237179     9.5737485036    -6.0887623593
          6
Energy: -4.724045112829742 Kcal/mole
 Xe    -5.4529380103     5.4647625387    -4.8837378399
 Xe    -2.4504674235     7.9132737444    -6.6083262144
 Xe    -1.8647910095     3.6775024799    -7.4399638209
 Xe    -6.2125573061     2.5413243148    -8.4450738196
 Xe    -5.3975753144     6.7060337599    -9.7417647647
 Xe    -6.6459834093     9.4805616111    -6.9887814577
          6
Energy: -5.070266493760089 Kcal/mole
 Xe    -4.9147501982     6.4002555479    -5.3317369436
 Xe    -3.8179308298     8.9140643027    -9.0068730098
 Xe    -6.4275399413     5.5090649644    -9.7598877787
 Xe    -8.7678823985     4.6896385770    -6.2122508242
 Xe    -7.9737674283     8.7151110912    -7.4495908920
 Xe    -8.2755531012     8.4365096855    -3.2379896857
          6
Energy: -5.210638819206176 Kcal/mole
 Xe    -4.5248349970     7.1333093648    -4.8627437466
 Xe    -5.0582359763     9.2647349283    -8.5541836699
 Xe    -4.4505306486     4.7522317840    -8.4730691763
 Xe    -6.5395923718     3.2836681636    -4.9200140768
 Xe    -8.1954489567     6.7625653766    -7.3810360229
 Xe    -8.5245359722     6.6395746995    -3.0435491105
          6
Energy: -5.326262719418913 Kcal/mole
 Xe    -4.5466309449     7.2249637064    -4.8435722364
 Xe    -4.8143455576     9.3136302531    -8.6974379636
 Xe    -4.3144787402     4.9238750720    -8.5976440764
 Xe    -6.5468787613     3.2843318640    -5.1818859944
 Xe    -8.1531782885     6.7293339937    -7.4214347521
 Xe    -8.5170781140     6.6061807444    -3.0441081137
