          6
Energy: -5.501877639213865 Kcal/mole
 Xe     1.5829709278    -6.6367699706    -6.8027948590
 Xe     3.6279616435    -4.9106797350    -3.3304384650
 Xe    -0.0413770655    -5.4766932760    -0.9440802670
 Xe     1.7751524783    -8.8740644278    -3.0458218076
 Xe    -0.1950748304    -3.1941390825    -4.6994743155
 Xe    -2.0723485189    -7.1857181489    -4.4237836717
