          3
Energy: -0.9509996841977362 Kcal/mole
 Kr     3.0386906521    -1.8980009414     1.8051907508
 Kr     5.2193803541    -4.7546469062     3.7113776859
 Kr     1.2662822251    -4.3082944601     4.5620316902
