          3
Energy: -0.01869759612873757 Kcal/mole
 Kr     1.7497546153    -3.9930887341     0.3088614162
 Kr    -1.9234883321     3.3675208146     3.5931583671
 Kr    -4.0925918105     0.4483553012    -4.3929264236
