          3
Energy: -0.950992397526454 Kcal/mole
 Kr     0.2808510221     4.6299994105     0.9827093050
 Kr    -2.1487702637     6.5137432088     3.6418935086
 Kr     1.2133164173     4.6259839076     4.9424473467
