          3
Energy: -0.5251264815346037 Kcal/mole
 Kr    -0.3527529925    -1.8912409907     4.5693960804
 Kr    -3.0029178954     0.3645845173     3.1594770792
 Kr    -0.1368495182     0.0762501353    -0.4663804898
          3
Energy: -0.7622630112138009 Kcal/mole
 Kr    -7.2481426436    -0.6658458970     4.1518637730
 Kr    -7.0007916901    -5.7951649063     3.3577012649
 Kr    -4.1927271484    -3.2209392458     4.8612009183
          3
Energy: -0.7587621756538285 Kcal/mole
 Kr    -1.8862518739    -2.6476472472     1.3405716132
 Kr    -1.8174581428     1.2340049575     0.7528250211
 Kr    -0.8199987524    -1.3848269371     4.9763014406
          3
Energy: -0.07035968287593422 Kcal/mole
 Kr    -5.2070305306     3.3134708863    -4.2034168723
 Kr    -2.8154830894    -2.8161216268     4.0570522491
 Kr     0.2521995661    -0.6911837813    -0.7633808469
          3
Energy: -0.9128303331555645 Kcal/mole
 Kr     2.2939474311    -1.6358982474     5.8979758804
 Kr     6.2689410204    -1.5323087581     7.3340395480
 Kr     4.3940165058    -5.1768151562     6.0820435307
          3
Energy: -0.6682357350252628 Kcal/mole
 Kr    -2.9544656509     1.6508334016     2.5569715828
 Kr    -0.6842216295     3.9757415418     0.3397363464
 Kr    -4.3932360601     4.5969338052     5.1110863046
          3
Energy: -0.8450146210717091 Kcal/mole
 Kr    -5.8371196540    -4.1552791357     3.3345847445
 Kr    -5.0603788297    -1.7575578215     6.6859861935
 Kr    -4.0138347927    -5.4869220612     7.2958863044
          3
Energy: -0.9379153897461763 Kcal/mole
 Kr     2.2888970955    -3.7884395335     5.1928685996
 Kr    -0.7435325397    -5.4755290683     2.8903894399
 Kr    -1.6282747259    -3.7930305979     6.5702311812
          3
Energy: -0.9257017415133522 Kcal/mole
 Kr    -0.5640244381    -0.3535010165    -3.1200862020
 Kr    -3.3408399346     0.3596488474    -0.2921415929
 Kr    -0.0869283995     2.5483609593    -0.1715836815
          3
Energy: -0.9509954344756654 Kcal/mole
 Kr    -0.6468086155    -0.0749918564    -3.2843439154
 Kr    -3.4270375696     0.2845653564    -0.3356897778
 Kr     0.1167161756     2.2579018463    -0.0377029669
