          3
Energy: -0.15744199610639573 Kcal/mole
 Kr     7.2151883606     1.1885721154     4.4437526378
 Kr     0.1739147199    -4.0762519805     5.7283267239
 Kr    -0.2605510174     0.9701721395     4.8083889395
          3
Energy: -0.3061485988102121 Kcal/mole
 Kr    -0.7586000113     3.6547420857     2.2467788969
 Kr     1.3197754242     4.7025292952     5.8120943962
 Kr    -2.5013807368     6.6407058362    -5.7508684593
          3
Energy: -0.006492003994581221 Kcal/mole
 Kr     6.8055959427    -2.5828098847    -2.3829518839
 Kr     2.9492419012     5.4321469537    -2.4185301484
 Kr    -6.7702249619     3.1876831811     5.9157142996
          3
Energy: -0.011879656586016625 Kcal/mole
 Kr    -6.1810924207    -2.4127643989     0.1783605225
 Kr     1.0283913555    -3.2897298038     4.4930565511
 Kr     0.8082952440     6.4440516702     5.4846186385
          3
Energy: -0.009765633341666559 Kcal/mole
 Kr     0.0196971541    -1.6160409591     1.2959273981
 Kr     3.5282147446     4.9921650720    -7.4345599706
 Kr    -5.4805068353    -7.3549961176     3.8282112387
          3
Energy: -0.5189123249025818 Kcal/mole
 Kr    -3.9184900380     0.2986650859     1.3157387850
 Kr    -7.4468943262     4.2022085433     4.1116530353
 Kr    -2.5564492849     3.9360100803     2.7167639138
          3
Energy: -0.30922418775710653 Kcal/mole
 Kr    -3.9069643874    -5.6654618569    -7.1549141996
 Kr    -4.8352959337     0.8161489157     2.6937630710
 Kr    -7.1676328688    -2.3088925947     1.0731502528
          3
Energy: -0.8474441916012588 Kcal/mole
 Kr     0.2783395516    -4.9134909572    -2.2110425850
 Kr     1.7415382783    -1.4563852301    -4.0999248255
 Kr     4.4484764998    -4.1617987500    -3.5471846641
          3
Energy: -0.9199153472795008 Kcal/mole
 Kr    -1.9792061885     1.9781400989    -2.0370119942
 Kr    -2.9780054009     5.8798499429    -1.4723878212
 Kr     0.9212592321     5.1744667235    -2.0794959223
          3
Energy: -0.9509983507243269 Kcal/mole
 Kr    -1.6750768181     2.0256347966    -1.4801925827
 Kr    -2.9780054009     5.8798499429    -1.4723878212
 Kr     0.9888157259     5.0763349142    -1.8680438712
