          3
Energy: -0.9509983507243269 Kcal/mole
 Kr    -1.6750768181     2.0256347966    -1.4801925827
 Kr    -2.9780054009     5.8798499429    -1.4723878212
 Kr     0.9888157259     5.0763349142    -1.8680438712
