          3
Energy: -0.9509954344756654 Kcal/mole
 Kr    -0.6468086155    -0.0749918564    -3.2843439154
 Kr    -3.4270375696     0.2845653564    -0.3356897778
 Kr     0.1167161756     2.2579018463    -0.0377029669
