          14
Energy: -54.11246701350096 Kcal/mole
 H     -2.2199446072    -4.0975854954     1.8309208061
 F     -1.6924672570    -3.3510999737     1.9045143577
 H     -3.7767607523    -5.5123794089     2.6472438281
 F     -3.2859886009    -5.3599696828     1.8877683704
 H     -5.5042341382    -1.4476436316     5.0908883832
 F     -6.1099156877    -1.9543959977     5.5569794687
 H     -5.4251275334    -5.1256556912     4.1871745502
 F     -4.6396686546    -5.5818164545     4.0612352480
 H     -1.8747855370    -2.4318031732     3.2616991640
 F     -2.0882129355    -1.9671822946     4.0229252702
 H     -3.5041559973    -1.1132053409     4.1128929955
 F     -4.3409702470    -0.7398283482     4.1478291205
 H     -6.5875269501    -3.3558721590     4.8373687296
 F     -6.7304433414    -4.1385806171     4.3814834645
