          3
Energy: -0.059999910357658476 Kcal/mole
 He     5.2883083796     2.9324166789     6.5566638689
 He     4.4963423473     2.2111185975     3.8956941991
 He     5.2856314030     0.1761615458     5.7589566388
