          3
Energy: -0.05999975657134995 Kcal/mole
 He     4.7201772426    -2.2717821094    -3.2123204757
 He     2.1071514800    -3.3722950611    -3.6555534657
 He     2.7853791325    -0.8071329593    -4.7454664834
