          3
Energy: -0.001277795814629269 Kcal/mole
 He    -6.4235686125    -1.3120879193     3.1898572711
 He    -3.7121244199     2.4064014325     1.0180704671
 He    -1.8003696092    -7.2727782820    -6.2359376997
          3
Energy: -0.001542059782165615 Kcal/mole
 He     3.2537161118    -1.3741781379    -4.6836543124
 He     4.7847275985    -7.4657604025     4.5148054371
 He     5.1155036529     2.1480289473    -1.7770883713
          3
Energy: -0.004462136840694512 Kcal/mole
 He    -0.1635539937    -3.9632348521     4.5135972596
 He    -3.6120485275    -3.9570174054     2.2028734744
 He     6.2419761148    -3.7200491765     4.2264438884
          3
Energy: -9.845541628813136E-4 Kcal/mole
 He    -3.4441736155    -7.1878902471     5.1780930703
 He    -6.5678389596     2.4862730932    -3.5400600929
 He    -6.8945750392    -2.3169229217    -5.7974998005
          3
Energy: -7.684373720531824E-4 Kcal/mole
 He     3.1578929294    -4.1478453104     0.9341345774
 He    -2.0223577893    -0.5127097376    -7.0140629275
 He    -6.7657822029    -1.5408387335    -4.2775356727
          3
Energy: -7.890095649171262E-4 Kcal/mole
 He     7.1885574248    -4.3960612812    -3.1683072641
 He     5.6693368455     6.6777724900    -6.3222239662
 He     6.2237747444     0.5214595565    -0.6651671943
          3
Energy: -0.017422783583431658 Kcal/mole
 He     6.2863883227    -4.7532142989    -4.0784492929
 He    -3.6465094185     6.2122790394    -2.4695554540
 He     6.1982754317    -7.4373982375    -4.5456296099
          3
Energy: -0.026216685484607018 Kcal/mole
 He    -2.1566935894     3.8824799294     1.6503677812
 He    -0.6221058705     1.8150065419     2.9932590463
 He     2.4852411749     1.6666597707     0.5245509380
          3
Energy: -0.04330507756076338 Kcal/mole
 He     5.1766847044     2.7358238512     7.1101546612
 He     4.7664369084     1.2904535318     3.0990041687
 He     5.1652779255     0.2194196439     5.7713794171
          3
Energy: -0.059999910357658476 Kcal/mole
 He     5.2883083796     2.9324166789     6.5566638689
 He     4.4963423473     2.2111185975     3.8956941991
 He     5.2856314030     0.1761615458     5.7589566388
