          3
Energy: -0.05999930237475903 Kcal/mole
 He    -0.6798335169     0.7711059575     3.4618440984
 He    -2.7665981533     2.6626149657     2.9212544942
 He    -0.2535448644     2.8693408364     1.5554560600
