          3
Energy: -6.476996847817195E-4 Kcal/mole
 He    -0.7000534549    -7.0140706630     5.1922980983
 He     6.7983984291     2.5470331210    -5.7282489606
 He     1.7681311888     0.2314047464    -4.3446448417
          3
Energy: -2.7187792694551477E-4 Kcal/mole
 He    -2.4281805766     4.5513768131    -4.7105543098
 He     0.7876082414    -0.7879348275    -2.4815812540
 He    -7.3811751307    -4.3079530825     6.3898495565
          3
Energy: -3.273435190023272E-5 Kcal/mole
 He    -2.2947346949    -4.9806445792     4.1023747142
 He     0.2849197355     4.3746468342    -1.4850024066
 He     4.7255154011    -6.2960086514    -4.1167071218
          3
Energy: -4.035763475046356E-6 Kcal/mole
 He     0.4927004575    -6.5302532879    -5.9889631954
 He    -5.7251513542     6.5007977843    -4.9475467360
 He     5.8697082597     6.1499733207     6.7897828773
          3
Energy: -0.002043743353650635 Kcal/mole
 He    -1.8117317896     6.9160958215    -2.9353640102
 He     3.2932955565    -9.234343E-40     4.5865785619
 He    -2.9600146053     2.4963987800    -1.7939284291
          3
Energy: -1.9617055456816506E-4 Kcal/mole
 He     5.4409607583    -0.0873497314     2.1668542128
 He    -1.0990721232    -3.5628417260    -3.6809948083
 He    -0.4646382201     3.8221669664    -4.0786584473
          3
Energy: -0.01675399630279095 Kcal/mole
 He    -6.3334181515    -0.0229714070     1.4085061851
 He    -4.3925759985     3.0128112633    -1.6697231646
 He    -3.3320743492     3.7887556700     1.3810349822
          3
Energy: -3.4344706389918275E-4 Kcal/mole
 He     7.0961174112    -5.9373524816    -1.5068146458
 He     6.8755739557    -2.1661054580    -6.6188988600
 He    -3.0704559883    -2.6978987066     5.4851497359
          3
Energy: -1.7991508225967835E-4 Kcal/mole
 He     5.8812911222    -3.4229858188    -2.0002276688
 He    -1.6710628854    -3.5635468429    -6.0356499161
 He     6.1304540868     4.1819739878    -2.2654810646
          3
Energy: -0.05999975657134995 Kcal/mole
 He     4.7201772426    -2.2717821094    -3.2123204757
 He     2.1071514800    -3.3722950611    -3.6555534657
 He     2.7853791325    -0.8071329593    -4.7454664834
