          3
Energy: -7.011030801469779E-4 Kcal/mole
 He     2.1093996688     1.8832737247     3.9845497933
 He     3.5976479767     2.9252658262    -1.9780358290
 He     3.6995629190    -4.0834082161     0.8806364097
