          3
Energy: -0.059998523008525435 Kcal/mole
 He     3.0797864586     3.5559826508    -4.3441735392
 He     5.2369067198     4.3882953582    -6.0398605158
 He     3.4882751089     6.3445914082    -4.8880654265
