          3
Energy: -0.7016979727899961 Kcal/mole
 Ar     0.9804268356     7.4185599040     1.5560644869
 Ar     0.9086502421     3.6961174547     2.3914604238
 Ar    -1.8973658583     5.9801292044     3.6100461029
