          3
Energy: -0.7016955200758052 Kcal/mole
 Ar     1.1000580212    -3.4652497446    -6.7838082735
 Ar     3.3410522902    -6.4890631386    -7.4209916410
 Ar    -0.4300108207    -6.9505249686    -7.0387032448
