          3
Energy: -0.7016944342351565 Kcal/mole
 Ar    -2.5020968644     3.1151487879    -3.9269596314
 Ar    -3.3108231120     0.8478366403    -6.8881045016
 Ar    -3.0795541167    -0.6184427092    -3.3739594748
