          3
Energy: -0.008007480440751256 Kcal/mole
 Ar     1.2338066185     3.5717145811    -1.1176238801
 Ar     4.1213618961    -3.0694121601     2.8112801040
 Ar    -4.9251669037    -4.4023722488     2.6521331989
