          3
Energy: -0.24949210375904876 Kcal/mole
 Ar    -2.0732393467     7.2621311295     7.2936787194
 Ar     3.4539370814    -0.7019650998     4.9081250618
 Ar     1.7424028645     1.7097534105     7.3929877277
          3
Energy: -0.005277422262015481 Kcal/mole
 Ar     5.8261527436    -0.2137749045    -4.7514169760
 Ar    -5.3256319901     3.3711404102     3.9450640832
 Ar    -2.8820379426     3.9804537405    -4.3659398159
          3
Energy: -0.16989675527671677 Kcal/mole
 Ar    -6.7330028721    -2.1832559653    -2.8514724691
 Ar    -2.0692893211     4.3000926960     0.2575811913
 Ar    -3.0716970477     0.2843239333    -3.9760662465
          3
Energy: -0.04984316021420223 Kcal/mole
 Ar    -3.0975083353    -6.1932592510    -4.0861529467
 Ar     5.9605298148    -6.3225466767    -0.0684909943
 Ar     1.6157234122    -2.5855848517    -3.1839779259
          3
Energy: -0.21305421106539635 Kcal/mole
 Ar    -5.3556823205     4.5844238787     1.5185153706
 Ar     0.8374158190     7.0471478266    -5.4928461889
 Ar    -5.9538744480     1.2749335180     3.8001971237
          3
Energy: -0.412288305811189 Kcal/mole
 Ar    -2.2983143685     3.6213363027     2.7509730552
 Ar    -5.4437583977     1.6348405047     1.1509945191
 Ar    -0.1000699902     1.8974206151    -0.6513746832
          3
Energy: -0.15550057968792924 Kcal/mole
 Ar    -4.1181085371    -2.6646216522     1.2980256960
 Ar    -3.3466071067     3.5073831316     2.0872188392
 Ar    -0.9992035089     6.4468892112    -0.5243276704
          3
Energy: -0.6474547143046976 Kcal/mole
 Ar    -1.4486296805     5.3725230807     0.1211588768
 Ar    -0.8803876210     2.1428117332    -1.5674372358
 Ar    -0.0541432120     5.0297072926    -3.7700451778
          3
Energy: -0.6400298699931877 Kcal/mole
 Ar     1.0042309146    -3.4118385513    -7.0827465712
 Ar     3.4318609597    -6.8437405921    -6.9879593429
 Ar    -0.5610688688    -6.8928019255    -7.4273820880
          3
Energy: -0.7016955200758052 Kcal/mole
 Ar     1.1000580212    -3.4652497446    -6.7838082735
 Ar     3.3410522902    -6.4890631386    -7.4209916410
 Ar    -0.4300108207    -6.9505249686    -7.0387032448
