          3
Energy: -0.2047587964602634 Kcal/mole
 Ar    -4.0263543581     4.4261288716     0.2385945707
 Ar    -0.5688432420     0.9863079653     5.4860100294
 Ar    -5.0952409046     3.4940527345     4.5965481034
          3
Energy: -0.2343070984276248 Kcal/mole
 Ar     3.3659651738    -1.1935575666     4.4300881827
 Ar    -0.2926468750     7.3597503115    -4.2109430377
 Ar    -1.5478607529     4.7327601390    -6.7072038126
          3
Energy: -0.031487041271293065 Kcal/mole
 Ar    -6.5444791539    -2.1969717516    -5.2192544790
 Ar    -4.1230699355    -6.8050869426     3.8860730091
 Ar    -2.6823009580    -1.0628988715     4.9530090156
          3
Energy: -0.05616022988575374 Kcal/mole
 Ar     7.3414566085     6.1481414170     3.3973344996
 Ar    -2.7503401386     5.2219818996    -0.8472856674
 Ar     1.2251471485     1.8722345987    -2.4007219914
          3
Energy: -0.06044023525999186 Kcal/mole
 Ar     0.9745897347     7.0564471220    -1.1366921445
 Ar    -0.7323221451    -6.3001300955    -6.4498506094
 Ar     4.7111417181     5.3524278458     2.2281886999
          3
Energy: -0.005002117729042082 Kcal/mole
 Ar     3.5866437726     5.9094182444    -5.1036984295
 Ar     0.1651015139    -7.0319045879    -0.1502117507
 Ar     4.6177122439     3.0930413998     2.7145891404
          3
Energy: -0.03308990610542371 Kcal/mole
 Ar    -1.7733248162     6.0828964526     5.8225139391
 Ar    -3.9192108686     0.7855003002     4.2547337803
 Ar     6.6361324335    -3.9897516747     4.7661687437
          3
Energy: -0.46192717631652014 Kcal/mole
 Ar    -5.3862618632    -3.1649513276     3.1852673677
 Ar    -2.6113682409    -4.3174050194     0.4435146183
 Ar    -4.2983945861    -7.1449530756    -1.6557347465
          3
Energy: -0.6219661849191485 Kcal/mole
 Ar    -3.3499056365     0.1693059311     2.3038138514
 Ar    -2.4189376645     3.8850119827     3.3566128309
 Ar    -6.4109151022     2.1582094825     3.3504817263
          3
Energy: -0.7016964800627388 Kcal/mole
 Ar    -3.4171939588     0.2984467872     2.0495033665
 Ar    -2.9497281071     3.8433988126     3.3854050489
 Ar    -6.4580661080     2.5166962348     2.6880501459
