          3
Energy: -0.7016964800627388 Kcal/mole
 Ar    -3.4171939588     0.2984467872     2.0495033665
 Ar    -2.9497281071     3.8433988126     3.3854050489
 Ar    -6.4580661080     2.5166962348     2.6880501459
