          3
Energy: -0.1341776770769299 Kcal/mole
 Ar     2.0922816990     2.7123819434    -3.7841581203
 Ar    -2.2845646148     3.4167311730    -2.6042055142
 Ar    -2.7126486015    -4.0783558530     1.8715678429
          3
Energy: -0.21818274251099423 Kcal/mole
 Ar    -3.3627038444    -5.1417005172     4.2731219536
 Ar     0.4464776429     6.6509399569     3.7632593587
 Ar     0.0742911442     6.6515857951     0.1113287327
          3
Energy: -0.37965022631723017 Kcal/mole
 Ar     2.6321774156    -0.7787856889     1.0190694871
 Ar    -1.0108798404    -0.6727697762     2.0651674186
 Ar     2.0796031142     3.1350434929    -1.4843447944
          3
Energy: -0.0017059197137844534 Kcal/mole
 Ar     6.9892130640    -2.6989612894     2.3696759972
 Ar    -7.4976911217    -0.9321521624    -1.4171930474
 Ar     1.6749000833     6.2703119037     1.3847465069
          3
Energy: -0.002837274122226198 Kcal/mole
 Ar    -3.8813551948     3.9802994291    -5.6636696870
 Ar    -5.2431446255    -5.5091349900    -4.6052005512
 Ar     5.3125213897    -6.8653138209    -6.8804251994
          3
Energy: -0.6591668468543654 Kcal/mole
 Ar     7.4787861600    -0.5447393367    -5.6574259800
 Ar     4.2210108473     1.3068823982    -5.5865226947
 Ar     4.0103717369    -1.9225810908    -7.4400118929
          3
Energy: -0.5199653288762713 Kcal/mole
 Ar    -7.3079119238    -3.1819871108    -3.9269155747
 Ar    -3.9759412914    -4.6036514757    -1.0404004479
 Ar    -6.6920215255    -1.6780469838    -0.0716256560
          3
Energy: -0.5626044245075806 Kcal/mole
 Ar    -3.6953882554    -5.4950841955     2.1943903700
 Ar    -2.1058044024    -0.9545814694     2.5672756107
 Ar    -2.4472072396    -3.7051483515     5.3488095296
          3
Energy: -0.6711400292832889 Kcal/mole
 Ar     0.9609720307     7.3927437856     1.5066592399
 Ar     1.0367209677     3.8501492182     2.7859022674
 Ar    -2.3190230387     6.1993732509     3.0167301747
          3
Energy: -0.7016979727899961 Kcal/mole
 Ar     0.9804268356     7.4185599040     1.5560644869
 Ar     0.9086502421     3.6961174547     2.3914604238
 Ar    -1.8973658583     5.9801292044     3.6100461029
