          8
Energy: -28.93050983851583 Kcal/mole
 H      5.0609205042    -5.6301523235     5.2221035471
 F      4.9080450840    -5.0770338243     5.9373503798
 H      6.1067408694    -5.5776838966     3.3624272939
 F      5.5976808861    -6.2309091474     3.7561831893
 H      6.7659274783    -3.5903299818     3.7927551281
 F      6.9218374687    -4.1433856282     3.0781149901
 H      5.7077177569    -3.6336661935     5.6472525263
 F      6.2167742913    -2.9827622057     5.2496667576
          8
Energy: -28.93098637064955 Kcal/mole
 H      5.0544350857    -5.6280763834     5.2191525354
 F      4.9083891205    -5.0771439481     5.9375069242
 H      6.1089183269    -5.5791429627     3.3628312520
 F      5.5975653770    -6.2308317473     3.7561617602
 H      6.7687905532    -3.5884882673     3.7919454398
 F      6.9216855891    -4.1434833269     3.0781579422
 H      5.7090358384    -3.6338783474     5.6485881087
 F      6.2167043702    -2.9827509514     5.2495959081
          8
Energy: -28.931225116315375 Kcal/mole
 H      5.0570966137    -5.6291713779     5.2205409162
 F      4.9082479326    -5.0770858612     5.9374332738
 H      6.1139831925    -5.5805545817     3.3671388858
 F      5.5972966976    -6.2307568642     3.7559332502
 H      6.7673909118    -3.5875256081     3.7908941877
 F      6.9217598369    -4.1435343938     3.0782137087
 H      5.7072047542    -3.6339612797     5.6461104044
 F      6.2168015049    -2.9827465521     5.2497273446
          8
Energy: -28.930753194538113 Kcal/mole
 H      5.0599085553    -5.6339400692     5.2229960721
 F      4.9132347324    -5.0819526917     5.9404120775
 H      6.1096490251    -5.5780794294     3.3655554791
 F      5.5975266151    -6.2308881653     3.7560172463
 H      6.7690765662    -3.5874257147     3.7911792060
 F      6.9216704168    -4.1435396929     3.0781985891
 H      5.7113681042    -3.6382432334     5.6443767163
 F      6.2165806488    -2.9825194043     5.2498193127
          8
Energy: -28.930894006081843 Kcal/mole
 H      5.0610696609    -5.6329799504     5.2224965808
 F      4.9131731385    -5.0820036238     5.9404385743
 H      6.1123683400    -5.5823413658     3.3620476552
 F      5.5973823618    -6.2306620794     3.7562033282
 H      6.7697872567    -3.5886188240     3.7922596304
 F      6.9216327163    -4.1434764012     3.0781412751
 H      5.7086112948    -3.6344273113     5.6471486886
 F      6.2167268912    -2.9827218302     5.2496722660
          8
Energy: -28.930760754473255 Kcal/mole
 H      5.0569745880    -5.6309403362     5.2201072507
 F      4.9133903726    -5.0821118206     5.9405653228
 H      6.1116582091    -5.5808282980     3.3636155917
 F      5.5974200326    -6.2307423441     3.7561201528
 H      6.7673648906    -3.5882696499     3.7914683742
 F      6.9217612172    -4.1434949241     3.0781832494
 H      5.7082885103    -3.6346489288     5.6463716871
 F      6.2167440142    -2.9827100739     5.2497134841
          8
Energy: -28.93080709506964 Kcal/mole
 H      5.0620648109    -5.6345766950     5.2239310908
 F      4.9131203481    -5.0819189202     5.9403624769
 H      6.1085881697    -5.5777628605     3.3646959977
 F      5.5975828911    -6.2309049585     3.7560628398
 H      6.7668818529    -3.5874259846     3.7907059761
 F      6.9217868413    -4.1435396786     3.0782236929
 H      5.7085877315    -3.6356564097     5.6450957422
 F      6.2167281412    -2.9826566294     5.2497811701
          8
Energy: -28.930995705230345 Kcal/mole
 H      5.0620330371    -5.6324021496     5.2222525794
 F      4.9131220336    -5.0820342748     5.9404515180
 H      6.1114480438    -5.5809288388     3.3631741022
 F      5.5974311814    -6.2307370107     3.7561435728
 H      6.7671146065    -3.5859839678     3.7896286088
 F      6.9217744942    -4.1436161742     3.0782808447
 H      5.7107640557    -3.6370397426     5.6455989553
 F      6.2166126922    -2.9825832467     5.2497544758
          8
Energy: -28.931172948461665 Kcal/mole
 H      5.0597150758    -5.6332785424     5.2224480991
 F      4.9132449961    -5.0819877842     5.9404411462
 H      6.1092486731    -5.5792452665     3.3630914706
 F      5.5975478529    -6.2308263203     3.7561479562
 H      6.7661516946    -3.5892179360     3.7919420037
 F      6.9218255745    -4.1434446197     3.0781581245
 H      5.7110297389    -3.6363805600     5.6470249326
 F      6.2165985983    -2.9826182149     5.2496788310
          8
Energy: -28.931028810875887 Kcal/mole
 H      5.0613832713    -5.6324697291     5.2221699625
 F      4.9131565022    -5.0820306898     5.9404559007
 H      6.1109405660    -5.5804754425     3.3632606643
 F      5.5974581019    -6.2307610623     3.7561389809
 H      6.7646566577    -3.5883451065     3.7909352631
 F      6.9219048827    -4.1434909213     3.0782115297
 H      5.7118197654    -3.6373773997     5.6463873288
 F      6.2165566893    -2.9825653348     5.2497126544
          8
Energy: -28.931071192044584 Kcal/mole
 H      5.0601218979    -5.6328178252     5.2221776724
 F      4.9132234151    -5.0820122242     5.9404554917
 H      6.1118765860    -5.5808483336     3.3638686727
 F      5.5974084482    -6.2307412813     3.7561067275
 H      6.7693470785    -3.5866420855     3.7906251487
 F      6.9216560668    -4.1435812626     3.0782279806
 H      5.7117321897    -3.6365343123     5.6476645064
 F      6.2165613349    -2.9826100587     5.2496449031
          8
Energy: -28.930645738295254 Kcal/mole
 H      5.0571051383    -5.6335693613     5.2221440958
 F      4.9133834472    -5.0819723569     5.9404572728
 H      6.1114775013    -5.5814052716     3.3624258670
 F      5.5974296187    -6.2307117370     3.7561832650
 H      6.7662825122    -3.5919336471     3.7940703890
 F      6.9218186349    -4.1433005575     3.0780452185
 H      5.7110970943    -3.6355421983     5.6484862412
 F      6.2165950253    -2.9826626880     5.2496013119
          8
Energy: -28.930938431008883 Kcal/mole
 H      5.0584972011    -5.6339338429     5.2227042583
 F      4.9133096015    -5.0819530220     5.9404275575
 H      6.1107020495    -5.5801166817     3.3635430994
 F      5.5974707546    -6.2307800937     3.7561239984
 H      6.7650535536    -3.5890948746     3.7916059662
 F      6.9218838283    -4.1434511478     3.0781759505
 H      5.7086285160    -3.6339250817     5.6479928845
 F      6.2167259777    -2.9827484723     5.2496274834
          8
Energy: -28.931070886472355 Kcal/mole
 H      5.0595698044    -5.6337611302     5.2227892769
 F      4.9132527024    -5.0819621840     5.9404230475
 H      6.1118325328    -5.5809416808     3.3636563007
 F      5.5974107851    -6.2307363294     3.7561179933
 H      6.7687569978    -3.5870461108     3.7908144459
 F      6.9216873692    -4.1435598300     3.0782179388
 H      5.7112668932    -3.6357824643     5.6483080093
 F      6.2165860179    -2.9826499425     5.2496107667
          8
Energy: -28.9312438995033 Kcal/mole
 H      5.0597736281    -5.6323990719     5.2217856586
 F      4.9132418900    -5.0820344381     5.9404762871
 H      6.1112044571    -5.5801797856     3.3640960757
 F      5.5974441031    -6.2307767462     3.7560946643
 H      6.7683837013    -3.5887553754     3.7920657917
 F      6.9217071717    -4.1434691574     3.0781515578
 H      5.7113150771    -3.6356103493     5.6486508344
 F      6.2165834618    -2.9826590728     5.2495925806
          8
Energy: -28.930573011760572 Kcal/mole
 H      5.0581553291    -5.6344683309     5.2230465422
 F      4.9133277370    -5.0819246686     5.9404094002
 H      6.1097515192    -5.5798496491     3.3627451873
 F      5.5975211781    -6.2307942592     3.7561663258
 H      6.7710745952    -3.5906898397     3.7941355261
 F      6.9215644260    -4.1433665386     3.0780417632
 H      5.7083615586    -3.6342048293     5.6471940697
 F      6.2167401391    -2.9827336323     5.2496698586
          8
Energy: -28.9314037487691 Kcal/mole
 H      5.0608729112    -5.6345008591     5.2236259142
 F      4.9131835756    -5.0819229431     5.9403786658
 H      6.1085360940    -5.5791908706     3.3622555929
 F      5.5975856536    -6.2308292059     3.7561922976
 H      6.7640742337    -3.5861365344     3.7880243498
 F      6.9148150769    -4.1401090365     3.0729854242
 H      5.7097578977    -3.6352966913     5.6471862661
 F      6.2166660666    -2.9826757116     5.2496702726
          8
Energy: -28.930855223021382 Kcal/mole
 H      5.0581107924    -5.6321281206     5.2212414331
 F      4.9133300996    -5.0820488114     5.9405051570
 H      6.1094297107    -5.5817382571     3.3592228695
 F      5.5975382493    -6.2306940729     3.7563531766
 H      6.7613469191    -3.5851853466     3.7867050386
 F      6.9149597546    -4.1401594948     3.0730554106
 H      5.7122622109    -3.6374977540     5.6467511755
 F      6.2165332185    -2.9825589503     5.2496933531
          8
Energy: -28.931248124734566 Kcal/mole
 H      5.0604398102    -5.6319272653     5.2215607060
 F      4.9132065506    -5.0820594663     5.9404882203
 H      6.1082954988    -5.5785911894     3.3629366848
 F      5.5975984166    -6.2308610176     3.7561561673
 H      6.7632721508    -3.5874389056     3.7888620243
 F      6.9148576255    -4.1400399487     3.0729409875
 H      5.7110921071    -3.6352493607     5.6489588183
 F      6.2165952899    -2.9826782224     5.2495762428
          8
Energy: -28.93077488940969 Kcal/mole
 H      5.0583685645    -5.6322230843     5.2213660131
 F      4.9133164254    -5.0820437738     5.9404985483
 H      6.1085017480    -5.5784905281     3.3633718530
 F      5.5975874755    -6.2308663574     3.7561330826
 H      6.7670914168    -3.5867760343     3.7891479318
 F      6.9146550223    -4.1400751125     3.0729258207
 H      5.7095111316    -3.6342332700     5.6486131868
 F      6.2166791569    -2.9827321236     5.2495945778
          8
Energy: -28.930077565276235 Kcal/mole
 H      5.0655055207    -5.6318189126     5.2225347660
 F      4.9129378264    -5.0820652142     5.9404365487
 H      6.1055994710    -5.5791571738     3.3585324794
 F      5.5977414346    -6.2308309934     3.7563898002
 H      6.7597460602    -3.5896287568     3.7897924102
 F      6.9150446765    -4.1399237822     3.0728916327
 H      5.7107221624    -3.6348459090     5.6491493520
 F      6.2166149146    -2.9826996245     5.2495661354
          8
Energy: -28.931256855637884 Kcal/mole
 H      5.0614148891    -5.6330778440     5.2226429354
 F      4.9131548249    -5.0819984308     5.9404308106
 H      6.1084004731    -5.5792886519     3.3619181301
 F      5.5975928479    -6.2308240188     3.7562101992
 H      6.7625687679    -3.5863500047     3.7878706403
 F      6.9148949384    -4.1400977124     3.0729935781
 H      5.7075851413    -3.6337820721     5.6468928074
 F      6.2167813263    -2.9827560586     5.2496858399
          8
Energy: -28.930593282375042 Kcal/mole
 H      5.0619456231    -5.6314109096     5.2214760193
 F      4.9131266707    -5.0820868578     5.9404927128
 H      6.1096215372    -5.5793283982     3.3634394317
 F      5.5975280733    -6.2308219104     3.7561294977
 H      6.7599330476    -3.5824476068     3.7842602682
 F      6.9150347573    -4.1403047256     3.0731851000
 H      5.7095439060    -3.6346194273     5.6480236858
 F      6.2166774183    -2.9827116389     5.2496258494
          8
Energy: -28.93141274854827 Kcal/mole
 H      5.0603932365    -5.6332863087     5.2225927592
 F      4.9132090212    -5.0819873722     5.9404334723
 H      6.1097408484    -5.5803215203     3.3619516887
 F      5.5975217441    -6.2307692275     3.7562084190
 H      6.7623549538    -3.5862819676     3.7877723346
 F      6.9149062807    -4.1401013216     3.0729987930
 H      5.7117163160    -3.6360406041     5.6484543602
 F      6.2165621770    -2.9826362487     5.2496030031
          8
Energy: -28.930966114449404 Kcal/mole
 H      5.0607969026    -5.6350063445     5.2240002494
 F      4.9131876077    -5.0818961283     5.9403588082
 H      6.1058007812    -5.5775879007     3.3613738497
 F      5.5977307556    -6.2309142397     3.7562390721
 H      6.7609846629    -3.5873832868     3.7883306943
 F      6.9149789715    -4.1400428992     3.0729691733
 H      5.7095508525    -3.6360544619     5.6456743312
 F      6.2166770498    -2.9826355136     5.2497504773
          8
Energy: -28.931111789124486 Kcal/mole
 H      5.0607698748    -5.6319830761     5.2216710794
 F      4.9131890414    -5.0820565057     5.9404823653
 H      6.1088477622    -5.5800927633     3.3611707441
 F      5.5975691203    -6.2307813626     3.7562498463
 H      6.7611693974    -3.5872158942     3.7882410893
 F      6.9149691718    -4.1400517789     3.0729739266
 H      5.7130802809    -3.6359349778     5.6503466390
 F      6.2164898218    -2.9826418520     5.2495026221
          8
Energy: -28.931046638278502 Kcal/mole
 H      5.0597915191    -5.6323544710     5.2217551538
 F      4.9132409409    -5.0820368040     5.9404779053
 H      6.1090905392    -5.5800237135     3.3615989790
 F      5.5975562415    -6.2307850255     3.7562271295
 H      6.7654511890    -3.5863309800     3.7884637120
 F      6.9147420326    -4.1400987216     3.0729621170
 H      5.7121920693    -3.6382387165     5.6454368665
 F      6.2165369394    -2.9825196439     5.2497630742
          8
Energy: -28.93104693724655 Kcal/mole
 H      5.0611177313    -5.6338142931     5.2231476130
 F      4.9131705885    -5.0819593638     5.9404040386
 H      6.1069397166    -5.5769227876     3.3639509509
 F      5.5976703377    -6.2309495224     3.7561023628
 H      6.7639119727    -3.5855693010     3.7875502600
 F      6.9148236845    -4.1401391269     3.0730105735
 H      5.7082351554    -3.6351204228     5.6455271112
 F      6.2167468445    -2.9826850622     5.2497582869
          8
Energy: -28.9313308706067 Kcal/mole
 H      5.0606043618    -5.6324291705     5.2219786172
 F      4.9131978215    -5.0820328414     5.9404660511
 H      6.1090508846    -5.5797636665     3.3619766900
 F      5.5975583451    -6.2307988204     3.7562070928
 H      6.7620207314    -3.5847364387     3.7865004658
 F      6.9149240105    -4.1401833083     3.0730662627
 H      5.7119615582    -3.6374725600     5.6464106233
 F      6.2165491675    -2.9825602868     5.2497114187
          8
Energy: -28.93112627940218 Kcal/mole
 H      5.0588830365    -5.6328378310     5.2219408147
 F      4.9132891338    -5.0820111629     5.9404680564
 H      6.1085271254    -5.5789194069     3.3626933620
 F      5.5975861293    -6.2308436064     3.7561690750
 H      6.7639116448    -3.5853239757     3.7873597172
 F      6.9148237019    -4.1401521408     3.0730206814
 H      5.7139380277    -3.6377354387     5.6484796777
 F      6.2164443203    -2.9825463417     5.2496016601
          8
Energy: -28.930852244502205 Kcal/mole
 H      5.0601876230    -5.6329972253     5.2223287292
 F      4.9132199286    -5.0820027074     5.9404474785
 H      6.1092370246    -5.5797519206     3.3622377313
 F      5.5975484708    -6.2307994435     3.7561932451
 H      6.7638359908    -3.5852731376     3.7873042401
 F      6.9148277151    -4.1401548377     3.0730236243
 H      5.7121779040    -3.6328727945     5.6493703325
 F      6.2215301588    -2.9816721857     5.2526499679
          8
Energy: -28.9306162057253 Kcal/mole
 H      5.0599568639    -5.6343354723     5.2233103649
 F      4.9132321698    -5.0819317165     5.9403954050
 H      6.1088844150    -5.5797059082     3.3618561482
 F      5.5975671759    -6.2308018843     3.7562134872
 H      6.7633171524    -3.5847925431     3.7868206768
 F      6.9148552383    -4.1401803321     3.0730492762
 H      5.7156408207    -3.6366412850     5.6475916082
 F      6.2213464591    -2.9814722760     5.2527443251
          8
Energy: -28.93038462800834 Kcal/mole
 H      5.0586355719    -5.6353264497     5.2238055905
 F      4.9133022613    -5.0818791474     5.9403691344
 H      6.1077572601    -5.5790651745     3.3614550277
 F      5.5976269689    -6.2308358738     3.7562347658
 H      6.7654923129    -3.5885930128     3.7902169809
 F      6.9147398511    -4.1399787260     3.0728691102
 H      5.7152238973    -3.6338620887     5.6516367890
 F      6.2213685759    -2.9816197060     5.2525297376
          8
Energy: -28.930932582622006 Kcal/mole
 H      5.0615199717    -5.6328804670     5.2225131539
 F      4.9131492505    -5.0820089012     5.9404376952
 H      6.1067404049    -5.5780638377     3.3617971104
 F      5.5976809107    -6.2308889924     3.7562166191
 H      6.7637876092    -3.5894957557     3.7905533839
 F      6.9148302817    -4.1399308376     3.0728512648
 H      5.7135525924    -3.6416391030     5.6461084487
 F      6.2215523246    -2.9887176459     5.2504838249
          8
Energy: -28.930852063648445 Kcal/mole
 H      5.0630658926    -5.6336537332     5.2234287854
 F      4.9130672430    -5.0819678812     5.9403891230
 H      6.1088434039    -5.5795932209     3.3619890668
 F      5.5975693515    -6.2308078621     3.7562064362
 H      6.7664249380    -3.5885574305     3.7903830081
 F      6.9146903775    -4.1399806135     3.0728603028
 H      5.7145200292    -3.6420350830     5.6466952604
 F      6.2215010043    -2.9886966401     5.2504526959
          8
Energy: -28.930893211444328 Kcal/mole
 H      5.0616993243    -5.6327118384     5.2224208800
 F      4.9131397363    -5.0820178465     5.9404425901
 H      6.1073061903    -5.5789094541     3.3611296950
 F      5.5976508971    -6.2308441344     3.7562520239
 H      6.7645117742    -3.5866569606     3.7885192664
 F      6.9147918664    -4.1400814291     3.0729591700
 H      5.7163426802    -3.6419470874     5.6491598838
 F      6.2214043169    -2.9887013080     5.2503219533
          8
Energy: -28.930828062422563 Kcal/mole
 H      5.0599589117    -5.6341929988     5.2232010536
 F      4.9132320612    -5.0819392744     5.9404012037
 H      6.1058468566    -5.5773378870     3.3618471811
 F      5.5977283114    -6.2309275024     3.7562139629
 H      6.7649954446    -3.5865812773     3.7885621334
 F      6.9147662088    -4.1400854439     3.0729568960
 H      5.7146437765    -3.6430540524     5.6451689841
 F      6.2214944398    -2.9886425861     5.2505336613
          8
Energy: -28.93097082485636 Kcal/mole
 H      5.0617001673    -5.6328820631     5.2225516438
 F      4.9131396916    -5.0820088165     5.9404356534
 H      6.1089304790    -5.5791978279     3.3627561590
 F      5.5975647324    -6.2308288368     3.7561657437
 H      6.7646956284    -3.5871223735     3.7889175350
 F      6.9147821133    -4.1400567400     3.0729380428
 H      5.7145361907    -3.6404817397     5.6492651622
 F      6.2215001470    -2.9887790414     5.2503163686
          8
Energy: -28.930891191699544 Kcal/mole
 H      5.0622960437    -5.6353427909     5.2245709042
 F      4.9131080817    -5.0818782806     5.9403285363
 H      6.1078464528    -5.5798710648     3.3602426157
 F      5.5976222374    -6.2307931232     3.7562990814
 H      6.7639970175    -3.5898249987     3.7908497882
 F      6.9148191730    -4.1399133720     3.0728355412
 H      5.7132895271    -3.6413684921     5.6462170602
 F      6.2215662796    -2.9887320012     5.2504780633
          8
Energy: -28.93056736019767 Kcal/mole
 H      5.0582625750    -5.6328983653     5.2218617869
 F      4.9133220479    -5.0820079517     5.9404722487
 H      6.1101558071    -5.5819773742     3.3597692166
 F      5.5974997315    -6.2306813883     3.7563241941
 H      6.7618835469    -3.5908308504     3.7911723581
 F      6.9149312878    -4.1398600139     3.0728184296
 H      5.7148804173    -3.6410452572     5.6487811696
 F      6.2214818866    -2.9887491481     5.2503420432
          8
Energy: -28.930649772210018 Kcal/mole
 H      5.0590966242    -5.6328175946     5.2219686145
 F      4.9132778035    -5.0820122364     5.9404665817
 H      6.1112003281    -5.5813121194     3.3622177996
 F      5.5974443221    -6.2307166785     3.7561943025
 H      6.7644939794    -3.5874796377     3.7891510076
 F      6.9147928104    -4.1400377880     3.0729256576
 H      5.7104602865    -3.6400253052     5.6447825985
 F      6.2217163643    -2.9888032541     5.2505541582
          8
Energy: -28.931168562277207 Kcal/mole
 H      5.0605861676    -5.6322870139     5.2218660098
 F      4.9131987867    -5.0820403825     5.9404720247
 H      6.1078310544    -5.5791267397     3.3614487537
 F      5.5976230543    -6.2308326079     3.7562350986
 H      6.7643366855    -3.5871014257     3.7888260133
 F      6.9148011544    -4.1400578512     3.0729428978
 H      5.7139591724    -3.6410090290     5.6476663835
 F      6.2215307565    -2.9887510699     5.2504011801
          8
Energy: -28.930908333876175 Kcal/mole
 H      5.0607656213    -5.6348895572     5.2239036483
 F      4.9131892671    -5.0819023236     5.9403639327
 H      6.1084997885    -5.5792938442     3.3620382465
 F      5.5975875795    -6.2308237434     3.7562038273
 H      6.7625638194    -3.5902731200     3.7908904005
 F      6.9148952009    -4.1398896002     3.0728333868
 H      5.7129490371    -3.6410718497     5.6462686791
 F      6.2215843418    -2.9887477374     5.2504753251
          8
Energy: -28.931290350831688 Kcal/mole
 H      5.0611798640    -5.6318197490     5.2216304457
 F      4.9131672925    -5.0820651698     5.9404845208
 H      6.1096954687    -5.5812789688     3.3603179174
 F      5.5975241514    -6.2307184371     3.7562950868
 H      6.7644341394    -3.5880085941     3.7895462098
 F      6.9147959847    -4.1400097280     3.0729046930
 H      5.7173814772    -3.6404934389     5.6509192509
 F      6.2241708394    -2.9879651814     5.2530996743
          8
Energy: -28.931302972248602 Kcal/mole
 H      5.0597916802    -5.6332368404     5.2224317124
 F      4.9132409324    -5.0819899964     5.9404420155
 H      6.1102634463    -5.5800162235     3.3631366945
 F      5.5974940215    -6.2307854228     3.7561455572
 H      6.7656331749    -3.5867959687     3.7888612654
 F      6.9147323787    -4.1400740550     3.0729410277
 H      5.7137794913    -3.6397560154     5.6475068822
 F      6.2243619165    -2.9880043000     5.2532806926
          8
Energy: -28.931241782540155 Kcal/mole
 H      5.0609057379    -5.6340505616     5.2232857578
 F      4.9131818342    -5.0819468303     5.9403967103
 H      6.1109702778    -5.5809959418     3.3624392436
 F      5.5974565257    -6.2307334510     3.7561825554
 H      6.7638770239    -3.5891591292     3.7903138978
 F      6.9148255384    -4.1399486948     3.0728639689
 H      5.7157864225    -3.6400298526     5.6496418741
 F      6.2242554534    -2.9879897736     5.2531674362
          8
Energy: -28.931407073118976 Kcal/mole
 H      5.0596716320    -5.6337709380     5.2228175880
 F      4.9132473007    -5.0819616637     5.9404215456
 H      6.1090093268    -5.5800419677     3.3614636396
 F      5.5975605497    -6.2307840572     3.7562343089
 H      6.7656400382    -3.5887968928     3.7904043548
 F      6.9147320146    -4.1399679106     3.0728591704
 H      5.7174755399    -3.6410168111     5.6501795131
 F      6.2241658496    -2.9879374177     5.2531389157
          8
Energy: -28.931107146233842 Kcal/mole
 H      5.0615586613    -5.6327071933     5.2223882294
 F      4.9131471981    -5.0820180929     5.9404443221
 H      6.1103312676    -5.5803599865     3.3626564316
 F      5.5974904238    -6.2307671870     3.7561710341
 H      6.7662568190    -3.5852582469     3.7877999099
 F      6.9146992958    -4.1401556276     3.0729973302
 H      5.7156103026    -3.6396216390     5.6500868255
 F      6.2242647962    -2.9880114284     5.2531438326
          8
Energy: -28.931426058515115 Kcal/mole
 H      5.0580891953    -5.6326708795     5.2216525173
 F      4.9133312453    -5.0820200193     5.9404833500
 H      6.1093014771    -5.5801228088     3.3617090816
 F      5.5975450518    -6.2307797687     3.7562212888
 H      6.7651081934    -3.5886067721     3.7901475271
 F      6.9147602277    -4.1399779961     3.0728727945
 H      5.7157942091    -3.6399324749     5.6498119562
 F      6.2242550403    -2.9879949393     5.2531584137
          8
Energy: -28.931407721022822 Kcal/mole
 H      5.0612353768    -5.6342818682     5.2235319095
 F      4.9131643476    -5.0819345601     5.9403836525
 H      6.1078110516    -5.5796082599     3.3606292240
 F      5.5976241154    -6.2308070644     3.7562785727
 H      6.7642347779    -3.5885668936     3.7899340485
 F      6.9148065604    -4.1399801115     3.0728841191
 H      5.7170190074    -3.6405294475     5.6503978953
 F      6.2241900676    -2.9879632713     5.2531273310
          8
Energy: -28.931325427737363 Kcal/mole
 H      5.0591458532    -5.6331942817     5.2222675476
 F      4.9132751920    -5.0819922540     5.9404507240
 H      6.1076415326    -5.5796097500     3.3604082811
 F      5.5976331080    -6.2308069853     3.7562902932
 H      6.7661130651    -3.5894048516     3.7909689653
 F      6.9147069216    -4.1399356598     3.0728292191
 H      5.7167609172    -3.6416463964     5.6482256847
 F      6.2242037587    -2.9879040197     5.2532425618
          8
Energy: -28.931392556329683 Kcal/mole
 H      5.0604744321    -5.6333880335     5.2226875506
 F      4.9132047140    -5.0819819759     5.9404284438
 H      6.1094359128    -5.5807074749     3.3609205083
 F      5.5975379203    -6.2307487535     3.7562631208
 H      6.7634160534    -3.5874773914     3.7889221808
 F      6.9148499918    -4.1400379071     3.0729377963
 H      5.7172464466    -3.6409473431     5.6500012993
 F      6.2241780025    -2.9879411029     5.2531483695
          8
Energy: -28.931411068041683 Kcal/mole
 H      5.0627967062    -5.6339386729     5.2235918551
 F      4.9130815227    -5.0819527658     5.9403804726
 H      6.1091973148    -5.5792732523     3.3629782386
 F      5.5975505773    -6.2308248357     3.7561539629
 H      6.7628958266    -3.5874815535     3.7888151551
 F      6.9148775887    -4.1400376863     3.0729434738
 H      5.7077254125    -3.6384358700     5.6486549854
 F      6.2161867614    -2.9860811112     5.2526886670
          8
Energy: -28.931460654509948 Kcal/mole
 H      5.0605483005    -5.6337678627     5.2229946910
 F      4.9132007954    -5.0819618269     5.9404121507
 H      6.1098046938    -5.5807466672     3.3613339827
 F      5.5975183573    -6.2307466745     3.7562411869
 H      6.7634837367    -3.5864088033     3.7881104862
 F      6.9148464014    -4.1400945933     3.0729808548
 H      5.7087223080    -3.6389115318     5.6491495009
 F      6.2161338784    -2.9860558785     5.2526624341
          8
Energy: -28.931623668766065 Kcal/mole
 H      5.0614130344    -5.6322975053     5.2220441594
 F      4.9131549233    -5.0820398259     5.9404625742
 H      6.1081921096    -5.5795456999     3.3612242323
 F      5.5976039011    -6.2308103830     3.7562470089
 H      6.7631488570    -3.5866077923     3.7881935559
 F      6.9148641660    -4.1400840373     3.0729764482
 H      5.7085319526    -3.6389874059     5.6487807195
 F      6.2161439763    -2.9860518535     5.2526819971
          8
Energy: -28.93151270553085 Kcal/mole
 H      5.0599432033    -5.6329189862     5.2222187334
 F      4.9132328944    -5.0820068578     5.9404533135
 H      6.1083777588    -5.5807867150     3.3596317381
 F      5.5965827509    -6.2309832221     3.7548524005
 H      6.7638882183    -3.5890530097     3.7902347717
 F      6.9148249446    -4.1399543242     3.0728681664
 H      5.7084946800    -3.6390757951     5.6485871892
 F      6.2161459536    -2.9860471647     5.2526922635
          8
Energy: -28.93168272153241 Kcal/mole
 H      5.0608104814    -5.6335003223     5.2228428788
 F      4.9131868874    -5.0819760193     5.9404202040
 H      6.1084903507    -5.5802975623     3.3605838118
 F      5.5965767781    -6.2310091705     3.7548018952
 H      6.7622392345    -3.5875253667     3.7887092497
 F      6.9149124194    -4.1400353621     3.0729490918
 H      5.7097405310    -3.6403072985     5.6481490276
 F      6.2160798640    -2.9859818363     5.2527155069
          8
Energy: -28.93154049725615 Kcal/mole
 H      5.0608290906    -5.6330617460     5.2225098437
 F      4.9131859002    -5.0819992847     5.9404378708
 H      6.1078111144    -5.5800784103     3.3600645680
 F      5.5966128101    -6.2310207960     3.7548294399
 H      6.7629630125    -3.5871493587     3.7885728817
 F      6.9148740246    -4.1400553085     3.0729563258
 H      5.7103666304    -3.6389197915     5.6512309084
 F      6.2160466509    -2.9860554403     5.2525520203
          8
Energy: -28.93136484866639 Kcal/mole
 H      5.0582345842    -5.6352848305     5.2236922460
 F      4.9133235327    -5.0818813552     5.9403751471
 H      6.1071674836    -5.5792317079     3.3606291951
 F      5.5966469532    -6.2310657116     3.7547994877
 H      6.7621557699    -3.5862246557     3.7876853801
 F      6.9149168470    -4.1401043619     3.0730034057
 H      5.7103547942    -3.6400015801     5.6494386034
 F      6.2160472788    -2.9859980539     5.2526470979
          8
Energy: -28.931287328456506 Kcal/mole
 H      5.0579070512    -5.6342666641     5.2228411913
 F      4.9133409076    -5.0819353666     5.9404202935
 H      6.1063108854    -5.5788801147     3.3601026886
 F      5.5966923937    -6.2310843628     3.7548274177
 H      6.7663039767    -3.5871389220     3.7892654719
 F      6.9146967942    -4.1400558621     3.0729195855
 H      5.7102588686    -3.6411210825     5.6474643059
 F      6.2160523674    -2.9859386669     5.2527518298
          8
Energy: -28.93163774649949 Kcal/mole
 H      5.0610522618    -5.6326020540     5.2222031523
 F      4.9131740615    -5.0820236703     5.9404541400
 H      6.1068182847    -5.5795464731     3.3596579528
 F      5.5966654774    -6.2310490141     3.7548510099
 H      6.7628205370    -3.5876971635     3.7889655376
 F      6.9148815826    -4.1400262487     3.0729354963
 H      5.7109151245    -3.6406407350     5.6490981319
 F      6.2160175546    -2.9859641482     5.2526651591
          8
Energy: -28.931648120946676 Kcal/mole
 H      5.0598443813    -5.6328289942     5.2221295393