          8
Energy: -28.9304889488796 Kcal/mole
 H      5.0611736462    -5.6346843327     5.2205615177
 F      4.8994629986    -5.0764659198     5.9298787034
 H      6.1240683709    -5.5812837464     3.3692065415
 F      5.6286328879    -6.2425211003     3.7669474672
 H      6.7421968155    -3.5727579722     3.7819127407
 F      6.8996992860    -4.1294686438     3.0704668890
 H      5.6944082100    -3.6306993548     5.6405961329
 F      6.1955392874    -2.9732231645     5.2437564897
          8
Energy: -28.92998847495548 Kcal/mole
 H      5.0614657253    -5.6370110985     5.2224659986
 F      4.8994475045    -5.0763424903     5.9297776751
 H      6.1267098366    -5.5814455904     3.3722492776
 F      5.6284927642    -6.2425125148     3.7667860571
 H      6.7476086737    -3.5759450667     3.7855656898
 F      6.8994121995    -4.1292995758     3.0702731085
 H      5.6926170652    -3.6303378164     5.6389251213
 F      6.1956343035    -2.9732423433     5.2438451330
          8
Energy: -28.92894354859709 Kcal/mole
 H      5.0639529295    -5.6317963750     5.2189362614
 F      4.8993155640    -5.0766191193     5.9299649195
 H      6.1259811409    -5.5821594224     3.3701403495
 F      5.6285314198    -6.2424746477     3.7668979308
 H      6.7448699019    -3.5802195059     3.7882668417
 F      6.8995574850    -4.1290728267     3.0701298186
 H      5.6845609568    -3.6228111523     5.6410185411
 F      6.1960616615    -2.9736416154     5.2437340819
          8
Energy: -28.930889437289864 Kcal/mole
 H      5.0656093132    -5.6343450886     5.2213209043
 F      4.8992276967    -5.0764839159     5.9298384197
 H      6.1257440951    -5.5826160426     3.3690850305
 F      5.6285439946    -6.2424504250     3.7669539131
 H      6.7444679520    -3.5767534708     3.7812769607
 F      6.9014993986    -4.1328913866     3.0692792476
 H      5.6921734872    -3.6306731870     5.6378004714
 F      6.1956578343    -2.9732245526     5.2439047931
          8
Energy: -28.930325948096055 Kcal/mole
 H      5.0628991919    -5.6346176050     5.2209046965
 F      4.8993714624    -5.0764694596     5.9298604986
 H      6.1251388338    -5.5815365866     3.3701223044
 F      5.6285761023    -6.2425076877     3.7668988881
 H      6.7427263231    -3.5735975415     3.7784120848
 F      6.9015917880    -4.1330588013     3.0694312227
 H      5.6898720654    -3.6294784685     5.6368426362
 F      6.1957799194    -2.9732879297     5.2439556041
          8
Energy: -28.929721167514884 Kcal/mole
 H      5.0596332728    -5.6340239717     5.2196932959
 F      4.8995447118    -5.0765009505     5.9299247606
 H      6.1288582459    -5.5835150627     3.3663096229
 F      5.6332514434    -6.2434342346     3.7660214990
 H      6.7381537255    -3.5706325856     3.7796544251
 F      6.8955128569    -4.1266272520     3.0676171826
 H      5.6937595039    -3.6303875898     5.6402926604
 F      6.1955736998    -2.9732397029     5.2437725882
          8
Energy: -28.930202236703764 Kcal/mole
 H      5.0612753410    -5.6348736477     5.2207337456
 F      4.8994576039    -5.0764558771     5.9298695671
 H      6.1248475142    -5.5803079785     3.3666664365
 F      5.6334642034    -6.2436043630     3.7660025708
 H      6.7392926611    -3.5692852567     3.7811247662
 F      6.8932150664    -4.1229212986     3.0665031697
 H      5.6914215988    -3.6296033434     5.6386218757
 F      6.1956977203    -2.9732813054     5.2438612195
          8
Energy: -28.929632345969935 Kcal/mole
 H      5.0601980608    -5.6285174532     5.2155335940
 F      4.8995147511    -5.0767930585     5.9301454232
 H      6.1189862054    -5.5805034811     3.3601183241
 F      5.6204860450    -6.2379613748     3.7602879234
 H      6.7405375281    -3.5736902705     3.7847802935
 F      6.8931490290    -4.1226876228     3.0663092524
 H      5.6936161049    -3.6306762242     5.6396321148
 F      6.1955813068    -2.9732243915     5.2438076287
          8
Energy: -28.92859402340261 Kcal/mole
 H      5.0609214407    -5.6341839645     5.2201106240
 F      4.8994763775    -5.0764924632     5.9299026223
 H      6.1160606643    -5.5816143720     3.3547002855
 F      5.6206412382    -6.2379024446     3.7605753378
 H      6.7434894463    -3.5708505032     3.7756503500
 F      6.8995784519    -4.1255742170     3.0623433868
 H      5.6906657512    -3.6329192410     5.6320707170
 F      6.1957378162    -2.9731054047     5.2442087433
          8
Energy: -28.93030494343256 Kcal/mole
 H      5.0585904703    -5.6313088585     5.2173373002
 F      4.8996000301    -5.0766449809     5.9300497407
 H      6.1106064707    -5.5746444257     3.3578997142
 F      5.6145780942    -6.2349537647     3.7564425932
 H      6.7427448382    -3.5722263052     3.7765549332
 F      6.8996179516    -4.1255012339     3.0622954008
 H      5.6947515114    -3.6304475602     5.6414456260
 F      6.1955210761    -2.9732365216     5.2437114261
          8
Energy: -28.929656006421936 Kcal/mole
 H      5.0542799118    -5.6308395981     5.2155701354
 F      4.8964832120    -5.0747595669     5.9274438605
 H      6.1173813784    -5.5777982705     3.3611946010
 F      5.6142187010    -6.2347864605     3.7562678071
 H      6.7509048778    -3.5692008280     3.7759474468
 F      6.8991850804    -4.1256617284     3.0623276265
 H      5.6905670646    -3.6278412500     5.6404503253
 F      6.1957430513    -2.9733747804     5.2437642245
          8
Energy: -28.930534876592304 Kcal/mole
 H      5.0573721252    -5.6319909789     5.2171649022
 F      4.8963191772    -5.0746984888     5.9273592618
 H      6.1187998395    -5.5793627285     3.3604062953
 F      5.6141434549    -6.2347034696     3.7563096249
 H      6.7468699273    -3.5727221560     3.7778310953
 F      6.8993991252    -4.1254749301     3.0622277033
 H      5.6874133921    -3.6289273174     5.6345818439
 F      6.1959103464    -2.9733171670     5.2440755339
          8
Energy: -28.930881590492675 Kcal/mole
 H      5.0556746712    -5.6325158823     5.2171942004
 F      4.8964092232    -5.0746706439     5.9273577076
 H      6.1168124591    -5.5789200224     3.3586155811
 F      5.6142488808    -6.2347269542     3.7564046181
 H      6.7436660326    -3.5702055739     3.7751869550
 F      6.8995690844    -4.1256084290     3.0623679689
 H      5.6882096482    -3.6283638183     5.6365581806
 F      6.1958681068    -2.9733470593     5.2439706938
          8
Energy: -28.930511513381674 Kcal/mole
 H      5.0573662146    -5.6321245476     5.2172683949
 F      4.8963194908    -5.0746914033     5.9273537718
 H      6.1169429570    -5.5812496873     3.3638130052
 F      5.6156922208    -6.2367747502     3.7637174829
 H      6.7493268814    -3.5790284783     3.7827401925
 F      6.9013162081    -4.1315655943     3.0668554392
 H      5.6882923087    -3.6264434041     5.6398497193
 F      6.1958637219    -2.9734489328     5.2437960852
          8
Energy: -28.92903810946669 Kcal/mole
 H      5.0630787665    -5.6347840465     5.2206898859
 F      4.8960164531    -5.0745503230     5.9271722696
 H      6.1118592737    -5.5754882666     3.3669760310
 F      5.6159618984    -6.2370803803     3.7635496917
 H      6.7460606164    -3.5766115561     3.7801642706
 F      6.9014894759    -4.1316938064     3.0669920859
 H      5.6891447784    -3.6272913098     5.6395421866
 F      6.1958185003    -2.9734039534     5.2438123991
          8
Energy: -28.931003781105744 Kcal/mole
 H      5.0581541495    -5.6317947104     5.2171887139
 F      4.8962776926    -5.0747089004     5.9273579987
 H      6.1154364292    -5.5805134296     3.3631358661
 F      5.6157721386    -6.2368138070     3.7637534036
 H      6.7472334139    -3.5767797165     3.7805496083
 F      6.9014272617    -4.1316848859     3.0669716446
 H      5.6893403147    -3.6278929558     5.6387971362
 F      6.1958081276    -2.9733720375     5.2438519223
          8
Energy: -28.930597577884384 Kcal/mole
 H      5.0550614756    -5.6307771572     5.2250117990
 F      4.8958210464    -5.0704543798     5.9332277765
 H      6.1186813274    -5.5797773232     3.3684404557
 F      5.6156000042    -6.2368528557     3.7634720073
 H      6.7460345201    -3.5765563058     3.7801155758
 F      6.9014908602    -4.1316967373     3.0669946691
 H      5.6862481280    -3.6266209254     5.6369202592
 F      6.1959721609    -2.9734395158     5.2439514863
          8
Energy: -28.930554514137327 Kcal/mole
 H      5.0599535284    -5.6295873573     5.2238147767
 F      4.8958239928    -5.0730377963     5.9338873658
 H      6.1149244668    -5.5799161992     3.3634766903
 F      5.6157992970    -6.2368454887     3.7637353236
 H      6.7496815523    -3.5760961598     3.7805422889
 F      6.9012973936    -4.1317211470     3.0669720329
 H      5.6920117069    -3.6279402460     5.6421202519
 F      6.1956664164    -2.9733695288     5.2436756387
          8
Energy: -28.929338347410464 Kcal/mole
 H      5.0535674533    -5.6249814797     5.2187932847
 F      4.8961627593    -5.0732821275     5.9341537443
 H      6.1216426751    -5.5853699301     3.3630021339
 F      5.6154429116    -6.2365561809     3.7637604977
 H      6.7412998795    -3.5795448189     3.7813855706
 F      6.9017420220    -4.1315382036     3.0669272988
 H      5.6905220297    -3.6257723738     5.6437858264
 F      6.1957454403    -2.9734845295     5.2435872839
          8
Energy: -28.9293591249062 Kcal/mole
 H      5.0551042359    -5.6303492519     5.2233091126
 F      4.8960812365    -5.0729973796     5.9339141901
 H      6.1199500845    -5.5836774362     3.3636223555
 F      5.6155326996    -6.2366459638     3.7637275964
 H      6.7478699989    -3.5719347096     3.7768920139
 F      6.9013934923    -4.1319419023     3.0671656716
 H      5.6934330477    -3.6288390473     5.6424364672
 F      6.1955910175    -2.9733218495     5.2436588642
          8
Energy: -28.93087546969258 Kcal/mole
 H      5.0580201512    -5.6308040644     5.2243255956
 F      4.8959265540    -5.0729732528     5.9338602680
 H      6.1158556904    -5.5818614081     3.3614568200
 F      5.6157498978    -6.2367422999     3.7638424731
 H      6.7459533782    -3.5779516039     3.7811817978
 F      6.9014951646    -4.1316227200     3.0669381084
 H      5.6901564945    -3.6260379487     5.6428901758
 F      6.1957648311    -2.9734704413     5.2436347960
          8
Energy: -28.930698003193697 Kcal/mole
 H      5.0535814397    -5.6341206016     5.2259437316
 F      4.8961620174    -5.0727973182     5.9337744296
 H      6.1169408463    -5.5795749495     3.3665692920
 F      5.6156923327    -6.2368635912     3.7635712682
 H      6.7452888453    -3.5764678511     3.7798837079
 F      6.9015304166    -4.1317014296     3.0670069691
 H      5.6902277645    -3.6291747658     5.6378063575
 F      6.1957610504    -2.9733040404     5.2439044809
          8
Energy: -28.930551810974066 Kcal/mole
 H      5.0520628014    -5.6311697377     5.2232793728
 F      4.8962425776    -5.0729538547     5.9339157677
 H      6.1171299103    -5.5784160147     3.3687348174
 F      5.6156823033    -6.2369250700     3.7634563921
 H      6.7465730437    -3.5750127474     3.7790285173
 F      6.9014622928    -4.1317786195     3.0670523350
 H      5.6871077126    -3.6260700958     5.6389439251
 F      6.1959265620    -2.9734687360     5.2438441355
          8
Energy: -28.931101862422082 Kcal/mole
 H      5.0566932617    -5.6301410660     5.2235033570
 F      4.8959969424    -5.0730084234     5.9339038859
 H      6.1189830603    -5.5813514820     3.3662163602
 F      5.6155839980    -6.2367693503     3.7635899905
 H      6.7441881606    -3.5768831793     3.7799649270
 F      6.9015888053    -4.1316793975     3.0670026606
 H      5.6877786040    -3.6244713904     5.6424283715
 F      6.1958909727    -2.9735535436     5.2436592937
          8
Energy: -28.930243733681436 Kcal/mole
 H      5.0537183448    -5.6330916069     5.2251594256
 F      4.8961547549    -5.0728519040     5.9338160353
 H      6.1142794940    -5.5803135458     3.3620237868
 F      5.6158335113    -6.2368244104     3.7638123968
 H      6.7443843821    -3.5800919200     3.7824927981
 F      6.9015783962    -4.1315091812     3.0668685629
 H      5.6887261897    -3.6258505506     5.6413794097
 F      6.1958407055    -2.9734803824     5.2437149387
          8
Energy: -28.92986328186032 Kcal/mole
 H      5.0482201921    -5.6319220998     5.2230392037
 F      4.8964464192    -5.0729139436     5.9339285081
 H      6.1103888559    -5.5726067098     3.3652034142
 F      5.6041346724    -6.2298684491     3.7558473798
 H      6.7481648591    -3.5762298405     3.7803223744
 F      6.9013778507    -4.1317140556     3.0669836989
 H      5.6925577700    -3.6295378012     5.6401772615
 F      6.1956374490    -2.9732847822     5.2437787099
          8
Energy: -28.9306903739039 Kcal/mole
 H      5.0540121706    -5.6292921511     5.2222381656
 F      4.8961391681    -5.0730534564     5.9339710014
 H      6.1093987910    -5.5764739991     3.3575147527
 F      5.6041871931    -6.2296632983     3.7562552455
 H      6.7427284272    -3.5772972124     3.7799631441
 F      6.9016662408    -4.1316574339     3.0670027552
 H      5.6894426140    -3.6283443989     5.6381793761
 F      6.1958027008    -2.9733480895     5.2438846931
          8
Energy: -28.92953850487541 Kcal/mole
 H      5.0568569892    -5.6255772318     5.2199858271
 F      4.8959882570    -5.0732505242     5.9340904827
 H      6.1159876087    -5.5796565120     3.3607339156
 F      5.6038376715    -6.2294944734     3.7560844763
 H      6.7545291172    -3.5847569925     3.7913220953
 F      6.9132423839    -4.1370197357     3.0766858512
 H      5.6870534094    -3.6237915162     5.6426127483
 F      6.1959294426    -2.9735896094     5.2436495129
          8
Energy: -28.9301260576471 Kcal/mole
 H      5.0493613611    -5.6237908500     5.2169660813
 F      4.8963858828    -5.0733452877     5.9342506733
 H      6.1148196757    -5.5764371076     3.3645476648
 F      5.6038996277    -6.2296652553     3.7558821658
 H      6.7544928601    -3.5786085172     3.7865177114
 F      6.9132443072    -4.1373458981     3.0769407127
 H      5.6876248284    -3.6268532288     5.6380962857
 F      6.1962619250    -2.9733010946     5.2443363184
          8
Energy: -28.931038949327956 Kcal/mole
 H      5.0525432151    -5.6273256785     5.2203824816
 F      4.8962170928    -5.0731577732     5.9340694411
 H      6.1143663303    -5.5761581835     3.3644217759
 F      5.6039236766    -6.2296800516     3.7558888439
 H      6.7514079989    -3.5812046454     3.7878584003
 F      6.9134079520    -4.1372081795     3.0768695922
 H      5.6911106898    -3.6272092363     5.6419717340
 F      6.1960770081    -2.9732822092     5.2441307348
          8
Energy: -28.930160459355648 Kcal/mole
 H      5.0543136374    -5.6288579271     5.2219659390
 F      4.8961231760    -5.0730764909     5.9339854424
 H      6.1136578531    -5.5767293700     3.3625502532
 F      5.6039612597    -6.2296497515     3.7559881238
 H      6.7502556238    -3.5850771021     3.7906064657
 F      6.9134690828    -4.1370027546     3.0767238137
 H      5.6907802857    -3.6268048228     5.6422166529
 F      6.1960945353    -2.9733036624     5.2441177424
          8
Energy: -28.929792043034013 Kcal/mole
 H      5.0547516252    -5.6230122187     5.2175401560
 F      4.8960999417    -5.0733865923     5.9342202199
 H      6.1176361837    -5.5786901762     3.3644814669
 F      5.6037502185    -6.2295457353     3.7558856774
 H      6.7541517691    -3.5813700612     3.7886069201
 F      6.9132624013    -4.1371994046     3.0768298850
 H      5.6862487574    -3.6240845205     5.6408909553
 F      6.1963349224    -2.9734479682     5.2441880676
          8
Energy: -28.930254297453104 Kcal/mole
 H      5.0486630746    -5.6316453348     5.2229163373
 F      4.8964229253    -5.0729286254     5.9339350259
 H      6.1137917950    -5.5763944744     3.3632804296
 F      5.6039541544    -6.2296675169     3.7559493897
 H      6.7531516517    -3.5836055578     3.7901229248
 F      6.9133154552    -4.1370808167     3.0767494644
 H      5.6877308614    -3.6257935481     5.6399857919
 F      6.1962563002    -2.9733573082     5.2442360844
          8
Energy: -28.930647395360523 Kcal/mole
 H      5.0529924646    -5.6271153491     5.2203177521
 F      4.8961932611    -5.0731689307     5.9340728749
 H      6.1144754887    -5.5755621329     3.3655614080
 F      5.6039178860    -6.2297116707     3.7558283890
 H      6.7547302816    -3.5820370766     3.7892562270
 F      6.9132317125    -4.1371640210     3.0767954407
 H      5.6872002317    -3.6236569206     5.6428093564
 F      6.1962844489    -2.9734706514     5.2440863008
          8
Energy: -28.92905302930575 Kcal/mole
 H      5.0552780986    -5.6283727768     5.2218024025
 F      4.8960720135    -5.0731022270     5.9339941176
 H      6.1152016087    -5.5776660877     3.3630003073
 F      5.6038793670    -6.2296000608     3.7559642495
 H      6.7527933033    -3.5777956180     3.7854939679
 F      6.9133344648    -4.1373890205     3.0769950199
 H      5.6835555703    -3.6256961432     5.6347211806
 F      6.1964777898    -2.9733624753     5.2445153599
          8
Energy: -28.92968139964546 Kcal/mole
 H      5.0479233296    -5.6287411327     5.2204868536
 F      4.8964621670    -5.0730826866     5.9340639044
 H      6.1128279017    -5.5757301967     3.3631359266
 F      5.6040052867    -6.2297027553     3.7559570552
 H      6.7558470642    -3.5843031034     3.7912626032
 F      6.9131724698    -4.1370438135     3.0766890071
 H      5.6866775898    -3.6279816170     5.6349839728
 F      6.1963121738    -2.9732412362     5.2445014194
          8
Energy: -28.930321854481775 Kcal/mole
 H      5.0525312142    -5.6296026965     5.2221540661
 F      4.8962177294    -5.0730369826     5.9339754626
 H      6.1082651424    -5.5800729182     3.3603754881
 F      5.5990633109    -6.2329375501     3.7545458410
 H      6.7537168357    -3.5818209396     3.7888614495
 F      6.9132854735    -4.1371754865     3.0768163828
 H      5.6854805540    -3.6256321351     5.6373442719
 F      6.1963756738    -2.9733658708     5.2443762110
          8
Energy: -28.929954430659933 Kcal/mole
 H      5.0454393497    -5.6284830995     5.2197636721
 F      4.8965939364    -5.0730963747     5.9341022675
 H      6.1103419123    -5.5819363486     3.3599825304
 F      5.5989531430    -6.2328386995     3.7545666865
 H      6.7555478570    -3.5808206476     3.7884882870
 F      6.9131883421    -4.1372285497     3.0768361782
 H      5.6907976115    -3.6309340798     5.6353757977
 F      6.1960936162    -2.9730846149     5.2444806340
          8
Energy: -28.93016976960473 Kcal/mole
 H      5.0450596974    -5.6248442019     5.2168714127
 F      4.8966140761    -5.0732894098     5.9342556952
 H      6.1170438106    -5.5847366632     3.3641424377
 F      5.5985976228    -6.2326901493     3.7543460131
 H      6.7634199288    -3.5858477159     3.7903811687
 F      6.9265963688    -4.1465228688     3.0833409843
 H      5.6897231294    -3.6267919122     5.6408921799
 F      6.1961506150    -2.9733043473     5.2441880026
          8
Energy: -28.930246192788843 Kcal/mole
 H      5.0447657482    -5.6289635370     5.2199973923
 F      4.8966296694    -5.0730708886     5.9340898692
 H      6.1165102316    -5.5820140884     3.3679847806
 F      5.5986259279    -6.2328345756     3.7541421856
 H      6.7615306219    -3.5877391773     3.7914388920
 F      6.9266965922    -4.1464225312     3.0832848746
 H      5.6895650615    -3.6269573065     5.6404175714
 F      6.1961590001    -2.9732955735     5.2442131795
          8
Energy: -28.929821359219858 Kcal/mole
 H      5.0505019681    -5.6289680728     5.2212162395
 F      4.8963253762    -5.0730706480     5.9340252122
 H      6.1167905549    -5.5826332674     3.3673184143
 F      5.5986110574    -6.2328017295     3.7541775348
 H      6.7654563369    -3.5848633899     3.7900667043
 F      6.9264883421    -4.1465750850     3.0833576659
 H      5.6876206450    -3.6239178678     5.6429202757
 F      6.1962621470    -2.9734568087     5.2440804168
          8
Energy: -28.929738666429387 Kcal/mole
 H      5.0468517976    -5.6279535721     5.2196479693
 F      4.8965190093    -5.0731244649     5.9341084053
 H      6.1170263513    -5.5848195153     3.3639817045
 F      5.5985985490    -6.2326857541     3.7543545396
 H      6.7655087342    -3.5859808650     3.7909653094
 F      6.9264855625    -4.1465158056     3.0833099970
 H      5.6841860133    -3.6249392547     5.6368080489
 F      6.1964443462    -2.9734026265     5.2444046563
          8
Energy: -28.929864115865797 Kcal/mole
 H      5.0481881139    -5.6249035011     5.2175719016
 F      4.8964481208    -5.0732862641     5.9342185359
 H      6.1176733818    -5.5843327081     3.3656535459
 F      5.5985642255    -6.2327115781     3.7542658523
 H      6.7615327980    -3.5864326054     3.7906528071
 F      6.9272255641    -4.1460712116     3.0833766675
 H      5.6894771364    -3.6287385800     5.6373496523
 F      6.1961636644    -2.9732010811     5.2443759255
          8
Energy: -28.929012781430572 Kcal/mole
 H      5.0630273634    -5.6300039987     5.2149001685
 F      4.9097810794    -5.0796894655     5.9322274933
 H      6.1180501306    -5.5862491575     3.3629742092
 F      5.5985442399    -6.2326099149     3.7544079849
 H      6.7673430045    -3.5898982004     3.7947098157
 F      6.9269173460    -4.1458873698     3.0831614525
 H      5.6903191035    -3.6273962086     5.6406565105
 F      6.1961190000    -2.9732722908     5.2442005043
          8
Energy: -28.9295891153036 Kcal/mole
 H      5.0609960801    -5.6321161825     5.2160939759
 F      4.9098888343    -5.0795774190     5.9321641646
 H      6.1136898855    -5.5818474617     3.3645105218
 F      5.5987755408    -6.2328434147     3.7543264870
 H      6.7674409244    -3.5877519789     3.7930493066
 F      6.9269121516    -4.1460012219     3.0832495387
 H      5.6883600426    -3.6270908962     5.6386503115
 F      6.1962229236    -2.9732884869     5.2443069286
          8
Energy: -28.93016683831695 Kcal/mole
 H      5.0561523366    -5.6313828808     5.2220538827
 F      4.9082980243    -5.0769685460     5.9373530144
 H      6.1174821609    -5.5854454922     3.3635492187
 F      5.5985743693    -6.2326525475     3.7543774820
 H      6.7645695968    -3.5852869756     3.7904498716
 F      6.9270644689    -4.1461319846     3.0833874327
 H      5.6960082554    -3.6300107182     5.6435379068
 F      6.1958172036    -2.9731335971     5.2440476529
          8
Energy: -28.930779237548478 Kcal/mole
 H      5.0564790638    -5.6324011878     5.2229120719
 F      4.9082806922    -5.0769145272     5.9373074895
 H      6.1155279826    -5.5826842667     3.3655479863
 F      5.5986780340    -6.2327990241     3.7542714519
 H      6.7644483505    -3.5872101483     3.7919430507
 F      6.9270709007    -4.1460299647     3.0833082230
 H      5.6930678424    -3.6294394951     5.6407764868
 F      6.1959731857    -2.9731638991     5.2441941399
          8
Energy: -28.930483551842514 Kcal/mole
 H      5.0572644756    -5.6307759263     5.2218145502
 F      4.9082390279    -5.0770007436     5.9373657104
 H      6.1136491532    -5.5834785725     3.3617466627
 F      5.5987777015    -6.2327568881     3.7544731034
 H      6.7653482335    -3.5864080819     3.7915158483
 F      6.9270231640    -4.1460725125     3.0833308851
 H      5.6906275187    -3.6285292523     5.6391758039
 F      6.1961026392    -2.9732121854     5.2442790524
          8
Energy: -28.93057689534146 Kcal/mole
 H      5.0609062756    -5.6292556392     5.2214080254
 F      4.9080458388    -5.0770813913     5.9373872756
 H      6.1117659466    -5.5816705306     3.3622764192
 F      5.5988776013    -6.2328528005     3.7544450010
 H      6.7597559091    -3.5850466612     3.7872490088
 F      6.9221648561    -4.1436658962     3.0784070770
 H      5.6933614691    -3.6285012475     5.6426953012
 F      6.1959576095    -2.9732136710     5.2440923512
          8
Energy: -28.929840208655605 Kcal/mole
 H      5.0606469473    -5.6309296416     5.2226469146
 F      4.9080595956    -5.0769925893     5.9373215554
 H      6.1098735938    -5.5813443243     3.3603531219
 F      5.5989779862    -6.2328701050     3.7545470275
 H      6.7648523969    -3.5851596376     3.7884853049
 F      6.9218944992    -4.1436599030     3.0783414944
 H      5.6971073991    -3.6264891384     5.6363085157
 F      6.2055292392    -2.9744301510     5.2398046577
          8
Energy: -28.929748853189608 Kcal/mole
 H      5.0580139396    -5.6302669445     5.2215773757
 F      4.9081992706    -5.0770277439     5.9373782920
 H      6.1112035463    -5.5811411414     3.3624207585
 F      5.5989074353    -6.2328808834     3.7544373442
 H      6.7611084337    -3.5823560581     3.7854293098
 F      6.9220931078    -4.1438086264     3.0785036078
 H      5.7010097586    -3.6261790334     5.6417624877
 F      6.2053222281    -2.9744466014     5.2395153371
          8
Energy: -28.929192112519473 Kcal/mole
 H      5.0508982328    -5.6316608812     5.2212042261
 F      4.9085767424    -5.0769537988     5.9373980867
 H      6.1139598652    -5.5815900915     3.3652979784
 F      5.5987612190    -6.2328570676     3.7542847143
 H      6.7636126108    -3.5834879139     3.7868912963
 F      6.9219602670    -4.1437485841     3.0784260528
 H      5.7003747881    -3.6304090815     5.6340101390
 F      6.2053559118    -2.9742222071     5.2399265813
          8
Energy: -28.9301708509974 Kcal/mole
 H      5.0539393516    -5.6287057870     5.2195350401
 F      4.9084154180    -5.0771105597     5.9374866332
 H      6.1118650507    -5.5818720679     3.3620715086
 F      5.5988723440    -6.2328421094     3.7544558711
 H      6.7612397460    -3.5871894069     3.7892695453
 F      6.9220861420    -4.1435522285     3.0782998922
 H      5.6997397285    -3.6265987164     5.6394810655
 F      6.2053896003    -2.9744243382     5.2396363613
          8
Energy: -28.930094044573593 Kcal/mole
 H      5.0576662351    -5.6309936894     5.2220669538
 F      4.9082177155    -5.0769891918     5.9373523210
 H      6.1141570718    -5.5818696678     3.3650913027
 F      5.5987507576    -6.2328422367     3.7542956780
 H      6.7665164515    -3.5834682844     3.7875182456
 F      6.9218062250    -4.1437496254     3.0783927946
 H      5.7010842388    -3.6283136492     5.6383763199
 F      6.2053182771    -2.9743333649     5.2396949655
          8
Energy: -28.930309350892202 Kcal/mole
 H      5.0597993004    -5.6329444299     5.2240325133
 F      4.9081045613    -5.0768857095     5.9372480526
 H      6.1132247286    -5.5821257346     3.3634333344
 F      5.5988002163    -6.2328286530     3.7543836293
 H      6.7641789338    -3.5872447002     3.7899709981
 F      6.9219302249    -4.1435492953     3.0782626818
 H      5.6990520232    -3.6267086951     5.6384299062
 F      6.2054260814    -2.9744185040     5.2396921229
          8
Energy: -28.930412120019525 Kcal/mole
 H      5.0573764731    -5.6327439284     5.2233655695
 F      4.9082330867    -5.0768963456     5.9372834325
 H      6.1106875003    -5.5802070650     3.3633018813
 F      5.5989348104    -6.2329304340     3.7543906026
 H      6.7624304231    -3.5866253070     3.7890961794
 F      6.9220229794    -4.1435821527     3.0783090889
 H      5.7022342476    -3.6283749880     5.6397260237
 F      6.2052572718    -2.9743301111     5.2396233668
          8
Energy: -28.92997274345572 Kcal/mole
 H      5.0558717925    -5.6274916278     5.2189979375
 F      4.9083129065    -5.0771749680     5.9375151252
 H      6.1127924377    -5.5820320371     3.3630209565
 F      5.5988231483    -6.2328336234     3.7544055050
 H      6.7617023376    -3.5832351060     3.7862613577
 F      6.9220616026    -4.1437619950     3.0784594696
 H      5.7014544268    -3.6283255126     5.6388246102
 F      6.2052986395    -2.9743327356     5.2396711847
          8
Energy: -28.929897632396802 Kcal/mole
 H      5.0540025958    -5.6327155338     5.2226474069
 F      4.9084120631    -5.0768978519     5.9373215293
 H      6.1116144542    -5.5827959929     3.3602169286
 F      5.5988856376    -6.2327930973     3.7545542522
 H      6.7595310470    -3.5883388892     3.7897791612
 F      6.9221767846    -4.1434912511     3.0782728583
 H      5.7004637602    -3.6282746016     5.6376544202
 F      6.2053511920    -2.9743354363     5.2397332606
          8
Energy: -28.930550097047927 Kcal/mole
 H      5.0611915634    -5.6292532942     5.2214671878
 F      4.9080307050    -5.0770815157     5.9373841372
 H      6.1122605143    -5.5828661142     3.3609426388
 F      5.5988513656    -6.2327893776     3.7545157550
 H      6.7635905024    -3.5866856110     3.7894028349
 F      6.9219614398    -4.1435789537     3.0782928215
 H      5.7008770666    -3.6311437050     5.6418611465
 F      6.2050656426    -2.9749757003     5.2467327757
          8
Energy: -28.931012829053827 Kcal/mole
 H      5.0574605330    -5.6298110934     5.2211097633
 F      4.9082286275    -5.0770519257     5.9374030978
 H      6.1137506647    -5.5832460969     3.3622645343
 F      5.5987723166    -6.2327692204     3.7544456315
 H      6.7614819571    -3.5865061104     3.7887890744
 F      6.9220732933    -4.1435884758     3.0783253801
 H      5.7000430583    -3.6301383014     5.6424638026
 F      6.2051098848    -2.9750290347     5.2467008061
          8
Energy: -28.93082681460743 Kcal/mole
 H      5.0554681228    -5.6316886922     5.2221499025
 F      4.9083343203    -5.0769523235     5.9373479208
 H      6.1124992336    -5.5826572353     3.3615996861
 F      5.5988387021    -6.2328004581     3.7544809001
 H      6.7615877362    -3.5852431992     3.7878208369
 F      6.9220676819    -4.1436554703     3.0783767428
 H      5.6991396403    -3.6284738634     5.6440578779
 F      6.2051578091    -2.9751173292     5.2466162441
          8
Energy: -28.931226146262162 Kcal/mole
 H      5.0568649296    -5.6298890851     5.2210461298