          8
Energy: -26.84300236594595 Kcal/mole
 H     -0.1671123942    -2.1078661206    -3.7830099223
 F     -0.9957347561    -1.8635206798    -3.4754887247
 H      1.8427745424    -1.9764235070    -3.2345752619
 F      1.4760140476    -2.3357387434    -3.9943570071
 H      1.2856756779    -0.8387162641    -1.5495392234
 F      2.0933014034    -1.2108830278    -1.7734177340
 H     -0.7095167052    -0.8547094076    -2.1675374916
 F     -0.3208119901    -0.3707972291    -1.4925362709
