          8
Energy: -26.828323855654645 Kcal/mole
 H     -3.6560157662     1.9713312077     5.3588965759
 F     -3.5068886911     2.2998787674     6.2019307487
 H     -5.2329463315     1.2409279246     4.1326090015
 F     -4.3357854034     1.3289518811     3.9645523081
 H     -6.6018503333     1.4835526858     5.6998365111
 F     -6.7539532904     1.2560331369     4.8246287956
 H     -4.9813029183     2.1398953831     6.9309281618
 F     -5.8595053929     1.9704082294     7.1332237829
          8
Energy: -26.771308387276406 Kcal/mole
 H     -3.6254952909     1.9150976504     5.3392474374
 F     -3.4570434838     2.2443882276     6.1783426075
 H     -5.1891835765     1.3089412391     4.0596512346
 F     -4.2852428304     1.3645703091     3.9158265701
 H     -6.5700686261     1.6008059201     5.6569749986
 F     -6.7291639488     1.3431745814     4.7914094196
 H     -4.9944608852     2.2435626158     6.9280333814
 F     -5.8933540493     2.1415449002     7.0779415705
          8
Energy: -26.816876866485444 Kcal/mole
 H     -3.5850154503     2.0100591004     5.2140734156
 F     -3.4194804003     2.3063447622     6.0659548357
 H     -5.1437652863     1.3971041344     3.9362547894
 F     -4.2529560358     1.5204178306     3.7569739720
 H     -6.4839663697     1.5737949593     5.5872339183
 F     -6.6372177992     1.3114160881     4.7220401092
 H     -4.9073015397     2.2076837384     6.8176035294
 F     -5.7947668417     2.0803060352     7.0101373145
          8
Energy: -26.825069008290853 Kcal/mole
 H     -3.5403570597     1.9388428041     5.2810851503
 F     -3.4167853370     2.1669289063     6.1606280766
 H     -5.1293749306     1.3739907138     4.0084378651
 F     -4.2361910139     1.4701864459     3.8244327777
 H     -6.5204554046     1.5804586716     5.6024180272
 F     -6.6502760730     1.2965157341     4.7402045953
 H     -4.9478709815     2.1887388035     6.8626897285
 F     -5.8499587451     2.1578946368     7.0244775652
          8
Energy: -26.829650928484966 Kcal/mole
 H     -3.5135434892     2.0008708048     5.3160413847
 F     -3.3632271945     2.2886739866     6.1736329775
 H     -5.1490579541     1.4909861363     4.0234789066
 F     -4.2451667843     1.4974209195     3.8691145754
 H     -6.5091098674     1.8143709308     5.6029419750
 F     -6.6745193318     1.5638500028     4.7364732948
 H     -4.8767616149     2.3264701669     6.8724437064
 F     -5.7761768937     2.2641974311     7.0399646384
          8
Energy: -26.83692691841256 Kcal/mole
 H     -3.5583236084     1.8855036614     5.3298702876
 F     -3.3881937184     2.0559051526     6.2146912595
 H     -5.2158511890     1.5497179381     4.0731396749
 F     -4.3212639494     1.5814839250     3.8741582866
 H     -6.5359552270     1.7625248233     5.6536922438
 F     -6.7169529201     1.5698636888     4.7756201953
 H     -4.9031512800     2.1037855342     6.9259809637
 F     -5.8015554288     2.0824103716     7.1084695599
          8
Energy: -26.826460258136592 Kcal/mole
 H     -3.5960786747     2.0930347620     5.2526617933
 F     -3.3994986964     2.1771773132     6.1443822334
 H     -5.2404908179     1.7543053686     3.9758923808
 F     -4.3499916788     1.8680917196     3.7889353015
 H     -6.4932400432     1.6911944216     5.6585104727
 F     -6.7074820896     1.6110002036     4.7705024587
 H     -4.8457533895     1.9468578186     6.9128260897
 F     -5.7278091937     1.8263755005     7.1327137187
          8
Energy: -26.839161787360837 Kcal/mole
 H     -3.6251745243     2.1758668217     5.2048404090
 F     -3.4070051665     2.2972138535     6.0872042960
 H     -5.2905341399     1.8103569846     3.9830395292
 F     -4.4035604299     1.8711361384     3.7583786019
 H     -6.5192383063     1.7444273469     5.7079202086
 F     -6.7550112391     1.7441055053     4.8217486561
 H     -4.8273443361     2.0254605639     6.9186365346
 F     -5.6941203513     1.8537027548     7.1637642453
          8
Energy: -26.820834828015506 Kcal/mole
 H     -3.6202486152     2.2496416605     5.2191567472
 F     -3.4062000731     2.3446158494     6.1057525542
 H     -5.2940707944     1.8388238487     4.0152688152
 F     -4.4178170861     1.9604034696     3.7738421506
 H     -6.5011558406     1.7040763599     5.6901618853
 F     -6.7169214011     1.6314251906     4.8018736267
 H     -4.8457056565     2.1143883635     6.9189933194
 F     -5.7171140439     1.9457834821     7.1494468207
          8
Energy: -26.806974361412273 Kcal/mole
 H     -3.6113616446     2.3671540940     5.2294872513
 F     -3.3984325418     2.4245062901     6.1195776527
 H     -5.2402558751     1.9537110630     3.9856074920
 F     -4.3887902057     2.2143228165     3.7665715869
 H     -6.5222525568     1.8131510027     5.6519359067
 F     -6.6854648681     1.5835885507     4.7792665409
 H     -4.8742274346     2.3554094564     6.8755020959
 F     -5.7673585402     2.3020798279     7.0764045075
          8
Energy: -26.799722890340945 Kcal/mole
 H     -3.6332300026     2.3837366301     5.1865081457
 F     -3.4588045583     2.5644560876     6.0684408201
 H     -5.2436632519     1.7336160816     3.9802880450
 F     -4.3980272926     1.9875582668     3.7326952526
 H     -6.4420117175     1.6289164130     5.7284525681
 F     -6.6204639338     1.4015543647     4.8581938103
 H     -4.8639323112     2.2868097020     6.8904593869
 F     -5.7123280767     2.0664922559     7.1598547246
          8
Energy: -26.82961912612504 Kcal/mole
 H     -3.6385041726     2.4224704645     5.1429418460
 F     -3.4070492418     2.6115314374     6.0098752711
 H     -5.2518091332     1.6958508120     3.9945083146
 F     -4.4071358709     1.9463840491     3.7402462901
 H     -6.4329818833     1.5734403589     5.7635531030
 F     -6.6547366396     1.4089999859     4.8890971626
 H     -4.7658842715     2.2161948114     6.8863996959
 F     -5.6059308361     1.9719000645     7.1612284535
          8
Energy: -26.785300521066063 Kcal/mole
 H     -3.7500862012     2.6397468903     5.1243461089
 F     -3.5745354343     2.8455581787     6.0005382349
 H     -5.2512404770     1.7759947487     3.9968108774
 F     -4.4563640323     2.1189717936     3.6944415927
 H     -6.3626701677     1.4386495159     5.7790987810
 F     -6.5347690943     1.2270116497     4.9036101328
 H     -4.8798624375     2.3495473221     6.9207734717
 F     -5.6577126439     1.9522346171     7.2000236656
          8
Energy: -26.839845858331046 Kcal/mole
 H     -3.7929613545     2.7115071418     5.1582156864
 F     -3.6094793144     2.9099963010     6.0344721526
 H     -5.2385109950     1.7631283917     3.9661685964
 F     -4.4662300563     2.1914655473     3.7191899881
 H     -6.3452773963     1.3281249957     5.7081469645
 F     -6.4981518503     1.1001905751     4.8331816502
 H     -4.9318024786     2.3569920261     6.8899589735
 F     -5.7194611203     1.9620276001     7.1438998454
          8
Energy: -26.813677577548958 Kcal/mole
 H     -3.8317475399     2.7494265251     5.1652070251
 F     -3.6252738647     2.9495516299     6.0359581743
 H     -5.2902768145     1.7799055208     4.0501149905
 F     -4.5190119219     2.1825956702     3.7604943610
 H     -6.3091854501     1.2585723909     5.8014303488
 F     -6.5581861905     1.1578160507     4.9246545558
 H     -4.8223673300     2.1610523713     6.9534716403
 F     -5.5607895208     1.6850209028     7.2161800511
          8
Energy: -26.842840412781328 Kcal/mole
 H     -3.8010920277     2.7790160313     5.1440552019
 F     -3.6145087830     3.0097480905     6.0117178147
 H     -5.2220599986     1.6914094005     4.0376265962
 F     -4.4817505571     2.1463044808     3.7445371956
 H     -6.2339486206     1.1748461730     5.8003182174
 F     -6.4451602053     0.9722704579     4.9312717594
 H     -4.8214874232     2.2794238869     6.9240807010
 F     -5.5572354242     1.8033260679     7.1940709708
          8
Energy: -26.822029592600245 Kcal/mole
 H     -3.8487324818     2.8472790417     5.1304738465
 F     -3.5862643773     2.9578416828     6.0021248068
 H     -5.4042543393     1.9372730937     4.0361120015
 F     -4.6817233544     2.4176454680     3.7393286499
 H     -6.2960050239     1.2413103457     5.8086377103
 F     -6.5558482872     1.1017215861     4.9403719349
 H     -4.7867144532     2.2177200396     6.8867522340
 F     -5.5125377712     1.7408199534     7.1810918657
          8
Energy: -26.828328770257144 Kcal/mole
 H     -3.8342518028     2.7703153841     5.1551713672
 F     -3.5931437388     2.9209489039     6.0269886899
 H     -5.3262151194     1.8261522630     4.0286126876
 F     -4.5802669156     2.2810199551     3.7501424739
 H     -6.2587412992     1.2054414569     5.7693871224
 F     -6.5344733358     1.1210854159     4.8989016818
 H     -4.7291860464     2.0858556177     6.9120038404
 F     -5.4504469692     1.5811446412     7.1687887920
          8
Energy: -26.81652425868114 Kcal/mole
 H     -3.9091317340     2.8056082201     5.2073653251
 F     -3.7215722980     2.9997222240     6.0837386539
 H     -5.2796996571     1.7842645837     4.0173686931
 F     -4.5229683840     2.2364935945     3.7649093853
 H     -6.2599603083     1.1186271050     5.7900974436
 F     -6.5068291686     1.0169241509     4.9128282290
 H     -4.8341898430     2.1230828541     6.9628515405
 F     -5.5260171780     1.5818638092     7.2261876072
          8
Energy: -26.823212303862874 Kcal/mole
 H     -3.7748335187     2.7346463454     5.2038411633
 F     -3.6326201657     2.9582653831     6.0817129582
 H     -5.1536045369     1.6559538886     4.0444764122
 F     -4.4032431500     2.1187108630     3.7920823322
 H     -6.2204080332     1.1081033834     5.7831960019
 F     -6.4172512818     0.9746153161     4.8975760657
 H     -4.8017254462     2.1514901425     6.9394037480
 F     -5.5098471872     1.6378170842     7.2143448126
          8
Energy: -26.839512648525215 Kcal/mole
 H     -3.8226331981     2.7248073074     5.2363895556
 F     -3.6665768038     2.9667262119     6.1070276236
 H     -5.1814410817     1.6002325022     4.0634626622
 F     -4.4314052891     2.0615928328     3.8075682400
 H     -6.2981022400     1.1739756010     5.8118679067
 F     -6.4496288208     0.9155411109     4.9451843949
 H     -4.9061126635     2.2577575050     6.9727114340
 F     -5.6680060045     1.8159174564     7.2280247872
          8
Energy: -26.84542649974088 Kcal/mole
 H     -3.7998390638     2.7585383772     5.2379522348
 F     -3.6651396024     2.9972130590     6.1130404883
 H     -5.1478455509     1.6430125979     4.0599542623
 F     -4.3774079955     2.0812175862     3.8248131099
 H     -6.2700982326     1.1891118409     5.7625385298
 F     -6.4482311909     0.9999677689     4.8831170330
 H     -4.8692277711     2.2174028739     6.9454388159
 F     -5.6082017133     1.7360590397     7.1966650608
          8
Energy: -26.839140698681717 Kcal/mole
 H     -3.7544051259     2.7261841100     5.2144637974
 F     -3.6318217551     2.9369804416     6.0984475211
 H     -5.1169151562     1.6984415717     3.9923475021
 F     -4.3465127302     2.1363336549     3.7565093679
 H     -6.2592439693     1.2497439656     5.7237732689
 F     -6.4073227563     1.0310644985     4.8456269465
 H     -4.8886904067     2.2423343995     6.9407126783
 F     -5.6550233042     1.8022401504     7.1855390294
          8
Energy: -26.83627293839811 Kcal/mole
 H     -3.5996635395     2.5180339872     5.2329781010
 F     -3.4221355296     2.6825686828     6.1174559920
 H     -5.0974928320     1.6268734748     4.0228030972
 F     -4.3021256288     2.0235989854     3.7972174563
 H     -6.2470298020     1.1428834860     5.7391694667
 F     -6.4262415535     0.9859262062     4.8536546106
 H     -4.7463419042     2.0545987566     6.9366546653
 F     -5.5302185936     1.6416356787     7.1730607398
          8
Energy: -26.841029076141325 Kcal/mole
 H     -3.6223362305     2.5297078014     5.2509112909
 F     -3.4134430542     2.6673435522     6.1331295411
 H     -5.1710558954     1.7487956855     4.0318435612
 F     -4.3676727824     2.1277674825     3.8041486976
 H     -6.2533049725     1.2575867190     5.7509434307
 F     -6.4635741057     1.1055839915     4.8714145440
 H     -4.7515999746     2.0934083340     6.9477152502
 F     -5.5475899774     1.7060112966     7.1869064936
          8
Energy: -26.831551365257667 Kcal/mole
 H     -3.6514894620     2.4994903352     5.2625272465
 F     -3.4115214360     2.5857735447     6.1433561483
 H     -5.2215730884     1.7734885063     4.0668267835
 F     -4.4337035675     2.1778916279     3.8289008849
 H     -6.3004552425     1.3102099535     5.7811593346
 F     -6.4934706947     1.1207111067     4.9049606002
 H     -4.7782063736     2.0809008505     6.9891899521
 F     -5.6142471268     1.7844150515     7.2216141979
          8
Energy: -26.804962189933917 Kcal/mole
 H     -3.6505226673     2.5735997782     5.2754432342
 F     -3.4793116669     2.7253709622     6.1634417145
 H     -5.2179242333     1.8224813809     4.0468194423
 F     -4.3883228631     2.1359546591     3.8136133737
 H     -6.3998853366     1.4753249807     5.7537869721
 F     -6.6257763615     1.3877684387     4.8693684643
 H     -4.8097128031     2.1679515596     6.9590117919
 F     -5.6140677236     1.8084465376     7.2132917577
          8
Energy: -26.8378796329948 Kcal/mole
 H     -3.6849471580     2.5763126490     5.3057536018
 F     -3.4855149945     2.7314901752     6.1872499135
 H     -5.2762299689     1.9048669727     4.0804607778
 F     -4.4300439901     2.1825581691     3.8619524512
 H     -6.4532423522     1.5934429837     5.7936931627
 F     -6.6646727500     1.4953013471     4.9068141371
 H     -4.8351698558     2.2075272440     7.0264181195
 F     -5.6716898664     1.9045539825     7.2485227676
          8
Energy: -26.839315876565394 Kcal/mole
 H     -3.6849031179     2.5438944686     5.3036922687
 F     -3.4903445080     2.6997153023     6.1861636932
 H     -5.2735689491     1.8355644098     4.0994535603
 F     -4.4444345943     2.1497622834     3.8655627358
 H     -6.4744999937     1.5649994746     5.7820637291
 F     -6.6648970238     1.3920658937     4.9018751427
 H     -4.8997652408     2.3207824471     7.0122463992
 F     -5.7481412858     2.0448581646     7.2244087819
          8
Energy: -26.844522692363086 Kcal/mole
 H     -3.7616100060     2.7156415971     5.2657704093
 F     -3.5856666368     2.9354603009     6.1384746366
 H     -5.3042956096     1.9063404832     4.0937246348
 F     -4.4559971399     2.1654481771     3.8610404946
 H     -6.5167849704     1.6808585593     5.7825949921
 F     -6.7085636408     1.5082448979     4.9026435926
 H     -4.9617388591     2.4685522760     6.9803964867
 F     -5.7819367631     2.1383265648     7.2235330284
          8
Energy: -26.830646589715883 Kcal/mole
 H     -3.7436155146     2.6165817053     5.2581592544
 F     -3.5312060320     2.8057132299     6.1299393173
 H     -5.3155494083     1.9087934768     4.0501981953
 F     -4.4644775109     2.1723247054     3.8331338798
 H     -6.5369182640     1.7505050711     5.7700822068
 F     -6.7074956161     1.5045503114     4.9033073669
 H     -4.9623855257     2.5247002826     6.9358452308
 F     -5.8246143734     2.3244707931     7.1753417148
          8
Energy: -26.837051934988523 Kcal/mole
 H     -3.7781095823     2.6814766233     5.2842080919
 F     -3.6191661054     2.9101686701     6.1578933435
 H     -5.3237877642     1.8872265307     4.0902193392
 F     -4.4750277777     2.1498646804     3.8632464606
 H     -6.5695420624     1.8296819875     5.7825769599
 F     -6.7253625519     1.5606140258     4.9199000754
 H     -5.0643262196     2.6376673227     6.9795610188
 F     -5.9289963847     2.4248318437     7.1985029389
          8
Energy: -26.851886067389927 Kcal/mole
 H     -3.7637572257     2.6315130063     5.2844239183
 F     -3.5810274862     2.8436765598     6.1576280576
 H     -5.3231676276     1.8680340806     4.1124707356
 F     -4.4864435978     2.1391805057     3.8531224866
 H     -6.5560393546     1.7796930983     5.8215345992
 F     -6.7077299630     1.4884696994     4.9653407595
 H     -5.0218889083     2.6221169868     6.9671081552
 F     -5.8818403610     2.4177838185     7.2112811582
          8
Energy: -26.852647631697153 Kcal/mole
 H     -3.7588632566     2.6678239525     5.2585533119
 F     -3.5594313608     2.9255580397     6.1156933584
 H     -5.3448330424     1.8638137467     4.1091941448
 F     -4.4977361716     2.1072536027     3.8561073453
 H     -6.5678223975     1.8482613630     5.8372058006
 F     -6.7584191158     1.5758221970     4.9826071862
 H     -4.9765537664     2.6726276388     6.9691227158
 F     -5.8292122434     2.4526156596     7.2249688622
          8
Energy: -26.839730884659616 Kcal/mole
 H     -3.7702584006     2.6881707647     5.2091530070
 F     -3.5701961464     2.9416296246     6.0674202735
 H     -5.3551080385     1.8641875496     4.1237569906
 F     -4.5178359318     2.1159015417     3.8471625482
 H     -6.5354223774     1.7884692102     5.8586864992
 F     -6.7380652443     1.5319908166     5.0019229950
 H     -4.9631275078     2.6413260719     6.9488930380
 F     -5.8043793763     2.4110222818     7.2319910034
          8
Energy: -26.821773969166117 Kcal/mole
 H     -3.8440215925     2.8085808070     5.1694572747
 F     -3.6541659632     3.1214679079     6.0102577874
 H     -5.3894549624     1.7713077357     4.1336021797
 F     -4.5661502427     2.0497205156     3.8411219880
 H     -6.5251404116     1.7498375102     5.8715532750
 F     -6.7523802731     1.4508533914     5.0349771923
 H     -4.9750070543     2.7104349720     6.9430714444
 F     -5.7770004860     2.3718268068     7.2312381427
          8
Energy: -26.84476235715985 Kcal/mole
 H     -3.8326005692     2.7654508303     5.1799950505
 F     -3.6764701767     3.1661334622     5.9899121630
 H     -5.3045578661     1.6343211040     4.1697108610
 F     -4.4849907155     1.9219939433     3.8756989171
 H     -6.5137174560     1.7147358092     5.9035271226
 F     -6.6808534890     1.3246782212     5.0906251454
 H     -5.0467937870     2.8273305256     6.9172663755
 F     -5.8647198044     2.5380390354     7.2142452700
          8
Energy: -26.83866063823632 Kcal/mole
 H     -3.8407017088     2.7897601459     5.1397771437
 F     -3.7116078096     3.2276814802     5.9350435583
 H     -5.2985690752     1.6447108257     4.1769488568
 F     -4.4694865243     1.9006270690     3.8802705795
 H     -6.5551359667     1.7577934341     5.8726883865
 F     -6.6986642152     1.3667554596     5.0557563548
 H     -5.0682336196     2.8682803359     6.8532888407
 F     -5.8774962332     2.5628510794     7.1577490050
          8
Energy: -26.84601226073434 Kcal/mole
 H     -3.8654051457     2.7664961488     5.0956429014
 F     -3.6895074578     3.1739253316     5.8981081433
 H     -5.3625304379     1.6405329501     4.1593343259
 F     -4.5425750325     1.9019411341     3.8427464322
 H     -6.5610923674     1.7211050473     5.8834366620
 F     -6.7405434433     1.3632924540     5.0584175959
 H     -5.0157658621     2.8076751420     6.8416754078
 F     -5.8134070965     2.4939199819     7.1675820825
          8
Energy: -26.8424089141472 Kcal/mole
 H     -3.8865339568     2.8033458173     5.0758585888
 F     -3.6993038172     3.1948503320     5.8836692658
 H     -5.3894379913     1.6584779113     4.1455303291
 F     -4.5835866349     1.9558607140     3.8245068721
 H     -6.5269722535     1.6868835493     5.9027408711
 F     -6.7293297555     1.3233204013     5.0855736429
 H     -4.9917000872     2.8024349749     6.8315495933
 F     -5.7856086054     2.4968114838     7.1738835625
          8
Energy: -26.84971916527158 Kcal/mole
 H     -3.8973524043     2.8241898706     5.0836416141
 F     -3.7114852002     3.2154071737     5.8919060536
 H     -5.4076515674     1.6650679970     4.1544472315
 F     -4.6102630586     1.9824077523     3.8314053677
 H     -6.5505128004     1.6892419981     5.8885141597
 F     -6.7400752966     1.2842306222     5.0879388382
 H     -5.0401322298     2.8498132471     6.8336625260
 F     -5.8437211959     2.5398407697     7.1483859551
          8
Energy: -26.84765566942113 Kcal/mole
 H     -3.8975715063     2.8058509136     5.1096644689
 F     -3.7123362937     3.1851896583     5.9237154703
 H     -5.3877384026     1.6868163770     4.1511929239
 F     -4.5809791787     1.9857323418     3.8338952710
 H     -6.5346892560     1.6739782549     5.9087967523
 F     -6.7310581099     1.3143744782     5.0884228150
 H     -5.0309796815     2.8008738950     6.8787693634
 F     -5.8362622097     2.4939371415     7.1921363673
          8
Energy: -26.832792562745226 Kcal/mole
 H     -3.9107869305     2.8316299895     5.1161962065
 F     -3.7216220041     3.2108241605     5.9294104534
 H     -5.3942523856     1.6813349467     4.1887680938
 F     -4.6145372779     2.0136293399     3.8387483986
 H     -6.5445151814     1.6379616867     5.9223647770
 F     -6.7091375665     1.2475961955     5.1090977523
 H     -5.0353944531     2.8030235556     6.8697084053
 F     -5.8360280163     2.4938231070     7.1926170302
          8
Energy: -26.846912727860058 Kcal/mole
 H     -3.9211390145     2.8417630088     5.0830223802
 F     -3.7265736977     3.1744271855     5.9151088439
 H     -5.4184029248     1.7124868653     4.1187506956
 F     -4.6325185849     2.0485692732     3.7866010015
 H     -6.5289048631     1.6331959863     5.9137476953
 F     -6.7158069539     1.2745140175     5.0907629726
 H     -5.0120090554     2.7263581244     6.8830369435
 F     -5.7925374245     2.3819231900     7.2192348630
          8
Energy: -26.849719768718018 Kcal/mole
 H     -3.9283521346     2.8781125566     5.0686566814
 F     -3.7486697145     3.2570321310     5.8841462178
 H     -5.4287043986     1.7265025887     4.1078919845
 F     -4.6319721155     2.0478257714     3.7871770311
 H     -6.4912157053     1.6212399021     5.9076744289
 F     -6.7272263441     1.3032046574     5.0806063776
 H     -4.9883127234     2.7274078437     6.8815920770
 F     -5.7412683274     2.3304197551     7.2226893006
          8
Energy: -26.845533237002172 Kcal/mole
 H     -3.9566354637     2.8893353689     5.0607993334
 F     -3.7636721615     3.2736739430     5.8706993423
 H     -5.4197504560     1.7237814921     4.1266858065
 F     -4.6324471015     2.0479701193     3.7861800622
 H     -6.5052265423     1.6242207661     5.9137490803
 F     -6.7305680133     1.3171519115     5.0795914573
 H     -5.0034467198     2.7552573682     6.8586050337
 F     -5.7573146305     2.3687072176     7.2095340212
          8
Energy: -26.848184704978394 Kcal/mole
 H     -3.9445313468     2.9055907133     5.0325385725
 F     -3.7360878613     3.2376211117     5.8615115081
 H     -5.4406602206     1.7452444262     4.1004029331
 F     -4.6695051330     2.0943297287     3.7477724147
 H     -6.4618229945     1.5739005173     5.9403634249
 F     -6.6979443049     1.2734673339     5.1067714209
 H     -4.9474720035     2.6762647264     6.8870186313
 F     -5.7011341993     2.2928871650     7.2418480834
          8
Energy: -26.84035597278296 Kcal/mole
 H     -3.9273445278     2.8333274929     5.0320043871
 F     -3.6900664734     3.1742771463     5.8495259212
 H     -5.4503863498     1.7550868087     4.1146811140
 F     -4.6814896653     2.0958061228     3.7491715555
 H     -6.4853191676     1.6081383190     5.9416025006
 F     -6.7127627720     1.2922560595     5.1113153184
 H     -4.9280334224     2.6911723952     6.8983689369
 F     -5.6909245979     2.3199827697     7.2463693913
          8
Energy: -26.837901129248536 Kcal/mole
 H     -3.9053677629     2.8158321269     5.0604262697
 F     -3.6823582806     3.1635884560     5.8790967201
 H     -5.4549637024     1.7385353375     4.1081665407
 F     -4.6681690559     2.0622218245     3.7660112508
 H     -6.5195757846     1.6877954738     5.9350505951
 F     -6.7393415745     1.3512972288     5.1108170549
 H     -4.9670981723     2.7572620606     6.8981524329
 F     -5.7426892942     2.4178114190     7.2504600734
          8
Energy: -26.847790532278452 Kcal/mole
 H     -3.8905812573     2.7636980809     5.0895488743
 F     -3.6966992641     3.1531999012     5.8967583296
 H     -5.4244721866     1.6402930376     4.1723163064
 F     -4.6132108712     1.9010228991     3.8335479233
 H     -6.5317976510     1.6742307076     5.9646038054
 F     -6.7581629373     1.3270036660     5.1466300046
 H     -4.9848375935     2.7513397960     6.9022576429
 F     -5.7661341734     2.4211487591     7.2507379628
          8
Energy: -26.85683334119841 Kcal/mole
 H     -3.8844411854     2.7347784131     5.0907845013
 F     -3.6854353962     3.1294567463     5.8942238015
 H     -5.4163413966     1.6218571391     4.1769342501
 F     -4.6136421908     1.9020008809     3.8333029520
 H     -6.5362996029     1.6930976072     5.9444644408
 F     -6.7462498742     1.3161493706     5.1353167964
 H     -4.9917279374     2.7790328280     6.8639487992
 F     -5.7892749025     2.4820657501     7.2054431521
          8
Energy: -26.857920503834208 Kcal/mole
 H     -3.8852465249     2.7323645632     5.0921752588
 F     -3.6853926748     3.1295847955     5.8941500251
 H     -5.4183483279     1.6235507900     4.1747964938
 F     -4.6130206966     1.9022403894     3.8361690975
 H     -6.5184735715     1.6695053932     5.9684778810
 F     -6.7309211438     1.2875246151     5.1623477959
 H     -4.9928132756     2.7913444760     6.8729212321
 F     -5.7849754347     2.4878103901     7.2211096471
          8
Energy: -26.853781012083857 Kcal/mole
 H     -3.8973219558     2.7392603499     5.0754223793
 F     -3.6886210579     3.1403186821     5.8732225732
 H     -5.4277881354     1.6215986388     4.1648708787
 F     -4.6284757025     1.9054005233     3.8163811014
 H     -6.5240361539     1.6743243646     5.9604795244
 F     -6.7238533108     1.2811923277     5.1564836878
 H     -4.9915926648     2.7986186413     6.8758193357
 F     -5.7937906977     2.5123478256     7.2155491344
          8
Energy: -26.853254969211946 Kcal/mole
 H     -3.8825785549     2.6838359219     5.0804598835
 F     -3.6593262328     3.0676212725     5.8828040773
 H     -5.4357438755     1.6171284233     4.1563021075
 F     -4.6321757961     1.8915778837     3.8101159790
 H     -6.5346365508     1.6969920493     5.9592245981
 F     -6.7511201880     1.3271520003     5.1485198597
 H     -4.9791452891     2.7905208772     6.8730107435
 F     -5.7833314984     2.5143370363     7.2163706522
          8
Energy: -26.859112443276587 Kcal/mole
 H     -3.8789612725     2.6975496155     5.0601032266
 F     -3.6656650522     3.0779697851     5.8667470247
 H     -5.4425463665     1.6415665528     4.1532504292
 F     -4.6375711711     1.9032168327     3.8004855416
 H     -6.5492397720     1.7339251463     5.9538353473
 F     -6.7682792020     1.3588769348     5.1462156552
 H     -4.9824024212     2.7868255340     6.8626128120
 F     -5.7831587150     2.5145330657     7.2169222385
          8
Energy: -26.855343520653264 Kcal/mole
 H     -3.8883064381     2.6956625158     5.0567047793
 F     -3.6719806439     3.0824331287     5.8595127537
 H     -5.4414796190     1.6429593950     4.1566954246
 F     -4.6376277596     1.9031429456     3.8003027926
 H     -6.5458782488     1.7242009520     5.9573623146
 F     -6.7684575230     1.3593927809     5.1460285577
 H     -4.9730318569     2.7655770972     6.8662671046
 F     -5.7716239605     2.4880202866     7.2213753542
          8
Energy: -26.852621348319474 Kcal/mole
 H     -3.8874822710     2.6889707021     5.0745747284
 F     -3.6499774327     3.0513654042     5.8827520182
 H     -5.4934125398     1.6966491897     4.1295126549
 F     -4.6806041070     1.9542752658     3.7920808002
 H     -6.5804968888     1.7687097454     5.9306078328
 F     -6.8269658509     1.4299525042     5.1148961299
 H     -4.9632179825     2.7534973046     6.8795149036
 F     -5.7721445638     2.4886610916     7.2206725890
          8
Energy: -26.858487964900405 Kcal/mole
 H     -3.9048885193     2.7035546407     5.0596773461
 F     -3.6869072814     3.0915637042     5.8614392475
 H     -5.4888775717     1.6674275760     4.1437296675
 F     -4.6752516023     1.9090479875     3.7965678051
 H     -6.5912966899     1.7649051229     5.9384890836
 F     -6.8158194584     1.3950060677     5.1300008553
 H     -4.9973073521     2.7929574146     6.8551860313
 F     -5.8022422625     2.5281852117     7.2057063167
          8
Energy: -26.85273901017257 Kcal/mole
 H     -3.9035253800     2.7178866114     5.0506697093
 F     -3.6901781636     3.1006545630     5.8561885859
 H     -5.4896737162     1.6785594051     4.1304895355
 F     -4.6724925436     1.9300361460     3.7990330829
 H     -6.5847187684     1.7580526111     5.9397377320
 F     -6.8161684020     1.3953695776     5.1299346174
 H     -5.0016842778     2.7954059600     6.8471199268
 F     -5.8020100767     2.5280553220     7.2061342049
          8
Energy: -26.84766146974482 Kcal/mole
 H     -3.9060816897     2.7084516283     5.0493573628
 F     -3.6897349826     3.0901628619     5.8545776038
 H     -5.4763322760     1.6463559795     4.1308459900
 F     -4.6747813143     1.9254116105     3.7836673464
 H     -6.5684425091     1.7326345735     5.9513806556
 F     -6.7789698533     1.3367567463     5.1514756717
 H     -4.9880005233     2.7801033443     6.8466031880
 F     -5.7881886175     2.5129572938     7.2060764161
          8
Energy: -26.85296016101148 Kcal/mole
 H     -3.9001405457     2.6898182640     5.0503692087
 F     -3.6697604181     3.0608622538     5.8566820229
 H     -5.4920205999     1.6575593382     4.1623459132
 F     -4.6982101985     1.9371580483     3.7982324584
 H     -6.5569793031     1.7247837056     5.9526527866
 F     -6.7866890335     1.3367406454     5.1541886214
 H     -4.9850395362     2.7798634034     6.8602599034
 F     -5.7934869694     2.5192847660     7.2058037087
          8
Energy: -26.85854318404452 Kcal/mole
 H     -3.9016980499     2.6887440628     5.0535801123