          8
Energy: -26.862202314565423 Kcal/mole
 H     -3.9362927239     2.9304645374     5.0341932905
 F     -3.7457336881     3.3279138561     5.8383141103
 H     -5.4121191454     1.7337741347     4.1375238166
 F     -4.6441193262     2.0825214041     3.7777452461
 H     -6.4943856898     1.7154917450     5.9471850683
 F     -6.6807536132     1.3098329348     5.1461876109
 H     -5.0271331382     2.9292420818     6.8392178210
 F     -5.8034922348     2.5930578394     7.1929630801
          8
Energy: -26.861883837466934 Kcal/mole
 H     -3.9381471571     2.9349532131     5.0324316288
 F     -3.7456353147     3.3276757423     5.8384075624
 H     -5.4128175746     1.7323942064     4.1346799634
 F     -4.6440822761     2.0825946061     3.7778961059
 H     -6.4931271019     1.7170321090     5.9461087654
 F     -6.6808203784     1.3097512220     5.1462447063
 H     -5.0245690495     2.9276743338     6.8433946769
 F     -5.8036282538     2.5931410048     7.1927415076
          8
Energy: -26.86219004159412 Kcal/mole
 H     -3.9357146982     2.9317803262     5.0334077183
 F     -3.7457643511     3.3278440566     5.8383557831
 H     -5.4128739743     1.7342394126     4.1363604046
 F     -4.6440792843     2.0824967221     3.7778069624
 H     -6.4938239042     1.7167847730     5.9463978002
 F     -6.6807834146     1.3097643426     5.1462293737
 H     -5.0251175453     2.9265055567     6.8410629960
 F     -5.8035991573     2.5932030057     7.1928651979
          8
Energy: -26.861928774474848 Kcal/mole
 H     -3.9378173945     2.9320558262     5.0337713813
 F     -3.7456528079     3.3278294419     5.8383364917
 H     -5.4165947824     1.7393280630     4.1385469095
 F     -4.6460207706     2.0843908889     3.7807252519
 H     -6.4937762434     1.7170929807     5.9462298061
 F     -6.6807859429     1.3097479929     5.1462382854
 H     -5.0292761731     2.9314992938     6.8366836713
 F     -5.8033785517     2.5929380995     7.1930975109
          8
Energy: -26.86218219445672 Kcal/mole
 H     -3.9385246420     2.9348999814     5.0325478347
 F     -3.7456152900     3.3276785661     5.8384013980
 H     -5.4153193457     1.7382329020     4.1402291467
 F     -4.6460884296     2.0844489846     3.7806360131
 H     -6.4936442220     1.7182195802     5.9456242066
 F     -6.6807929464     1.3096882294     5.1462704110
 H     -5.0266916327     2.9304143094     6.8413096694
 F     -5.8035156556     2.5929956554     7.1928521124
          8
Energy: -26.862234646832206 Kcal/mole
 H     -3.9383821890     2.9304926018     5.0346775895
 F     -3.7456228468     3.3279123674     5.8382884194
 H     -5.4162120435     1.7369448744     4.1370611104
 F     -4.6460410740     2.0845173115     3.7808040701
 H     -6.4925837147     1.7182671304     5.9453508219
 F     -6.6808492038     1.3096857070     5.1462849135
 H     -5.0266026270     2.9275828631     6.8388100396
 F     -5.8035203772     2.5931458571     7.1929847120
          8
Energy: -26.860531427041877 Kcal/mole
 H     -3.9436489976     2.9315031936     5.0354603853
 F     -3.7453434548     3.3278587578     5.8382468939
 H     -5.4159203956     1.7374903367     4.1382212176
 F     -4.6460565453     2.0844883760     3.7807425291
 H     -6.4872401588     1.7154801792     5.9454929316
 F     -6.6811326671     1.3098335483     5.1462773749
 H     -5.0259039686     2.9245435295     6.8374897113
 F     -5.8035574394     2.5933070867     7.1930547524
          8
Energy: -26.860496804991413 Kcal/mole
 H     -3.9454320654     2.9362769626     5.0335633057
 F     -3.7452488672     3.3276055204     5.8383475296
 H     -5.4181201412     1.7334337279     4.1455890178
 F     -4.6524526962     2.0814002454     3.7801281221
 H     -6.4970429079     1.7193570690     5.9458300908
 F     -6.6806126539     1.3096278883     5.1462594893
 H     -5.0235745442     2.9250734319     6.8431336428
 F     -5.8036810100     2.5932789766     7.1927553548
          8
Energy: -26.860867679944306 Kcal/mole
 H     -3.9426843672     2.9370062738     5.0325311940
 F     -3.7453946262     3.3275668321     5.8384022807
 H     -5.4205263649     1.7302740077     4.1374204787
 F     -4.6523250515     2.0815678613     3.7805614442
 H     -6.4935813434     1.7200266666     5.9446831879
 F     -6.6807962819     1.3095923677     5.1463203299
 H     -5.0273889229     2.9279849817     6.8374687637
 F     -5.8034786660     2.5931245256     7.1930558636
          8
Energy: -26.86143491740185 Kcal/mole
 H     -3.9334697243     2.9291306955     5.0341899568
 F     -3.7458834417     3.3279846134     5.8383142872
 H     -5.4039370100     1.7173170875     4.1427364746
 F     -4.6300929471     2.0535870671     3.7836029796
 H     -6.4903952853     1.7155879492     5.9461967848
 F     -6.6809652949     1.3098278314     5.1462400371
 H     -5.0282121314     2.9293572827     6.8369685369
 F     -5.8034349967     2.5930517282     7.1930823995
          8
Energy: -26.861718066649075 Kcal/mole
 H     -3.9342735526     2.9241487641     5.0368699404
 F     -3.7458408005     3.3282488933     5.8381721203
 H     -5.3999066657     1.7076104890     4.1465652317
 F     -4.6236800378     2.0417040860     3.7905558349
 H     -6.4944656285     1.7204877700     5.9446528440
 F     -6.6807493726     1.3095679072     5.1463219396
 H     -5.0247882784     2.9228199261     6.8383314497
 F     -5.8036166242     2.5933985199     7.1930101001
          8
Energy: -26.86164724510155 Kcal/mole
 H     -3.9342037891     2.9256205822     5.0375747704
 F     -3.7440819019     3.3211806267     5.8427299847
 H     -5.4145254160     1.7284162028     4.1433732327
 F     -4.6407038841     2.0664867745     3.7858854352
 H     -6.4918294590     1.7167700336     5.9459365375
 F     -6.6808892153     1.3097651245     5.1462538426
 H     -5.0268303402     2.9284788044     6.8391579901
 F     -5.8035082975     2.5930983295     7.1929662540
          8
Energy: -26.861001341049302 Kcal/mole
 H     -3.9337969987     2.9274352664     5.0411949975
 F     -3.7381125828     3.3216599565     5.8456721588
 H     -5.4140590940     1.7286927555     4.1446413678
 F     -4.6407286214     2.0664721040     3.7858181636
 H     -6.4908080314     1.7162837445     5.9459417112
 F     -6.6809433997     1.3097909210     5.1462535681
 H     -5.0253746453     2.9264548046     6.8404466632
 F     -5.8035855188     2.5932056980     7.1928978929
          8
Energy: -26.86197541420188 Kcal/mole
 H     -3.9419086896     2.9283521256     5.0305070903
 F     -3.7451838186     3.3237552633     5.8341517156
 H     -5.4119025403     1.7243065058     4.1354772321
 F     -4.6479652364     2.0799293980     3.7737851610
 H     -6.4868607305     1.7080820564     5.9516453513
 F     -6.6704426290     1.2956827733     5.1534514413
 H     -5.0272297898     2.9279934642     6.8378242938
 F     -5.8034871076     2.5931240756     7.1930370035
          8
Energy: -26.86175312273062 Kcal/mole
 H     -3.9355651206     2.9292437721     5.0285449492
 F     -3.7455203302     3.3237079635     5.8342558027
 H     -5.4122853569     1.7275640432     4.1378477125
 F     -4.6479449289     2.0797565931     3.7736594125
 H     -6.4885994652     1.7094213211     5.9490099176
 F     -6.6729950874     1.2977463101     5.1506297201
 H     -5.0268949467     2.9278786997     6.8384486085
 F     -5.8035048703     2.5931301636     7.1930038851
          8
Energy: -26.860917395306757 Kcal/mole
 H     -3.9406050566     2.9337438880     5.0275610052
 F     -3.7452529733     3.3234692427     5.8343079986
 H     -5.4106553117     1.7241544620     4.1379508318
 F     -4.6480313990     2.0799374635     3.7736539423
 H     -6.4904177309     1.7032885944     5.9525568531
 F     -6.6728986326     1.2980716370     5.1504415634
 H     -5.0233069597     2.9232242778     6.8404660359
 F     -5.7970867594     2.5831937390     7.1961808855
          8
Energy: -26.8606541214763 Kcal/mole
 H     -3.9408077124     2.9328891361     5.0280236369
 F     -3.7452422229     3.3235145853     5.8342834571
 H     -5.4135064532     1.7276502841     4.1353572022
 F     -4.6478801525     2.0797520183     3.7737915283
 H     -6.4844595566     1.6970738900     5.9551216889
 F     -6.6750719606     1.2984388623     5.1516006711
 H     -5.0258531338     2.9235991528     6.8353345185
 F     -5.7969516908     2.5831738527     7.1964531007
          8
Energy: -26.861805766127333 Kcal/mole
 H     -3.9420095163     2.9283206667     5.0305472583
 F     -3.7451784699     3.3237569321     5.8341495848
 H     -5.4142633841     1.7311374106     4.1371271255
 F     -4.6478399991     2.0795670343     3.7736976380
 H     -6.4905453130     1.7025237629     5.9538167759
 F     -6.6747491253     1.2981497592     5.1516698937
 H     -5.0234349027     2.9220558342     6.8390757061
 F     -5.7970799724     2.5832557222     7.1962546393
          8
Energy: -26.86090450091109 Kcal/mole
 H     -3.9410545052     2.9352481068     5.0269450326
 F     -3.7452291311     3.3233894474     5.8343406745
 H     -5.4125430939     1.7292261144     4.1389083958
 F     -4.6479312565     2.0796684241     3.7736031457
 H     -6.4864188432     1.6983325253     5.9549584808
 F     -6.6749680250     1.2983720946     5.1516093289
 H     -5.0249536106     2.9223411005     6.8360735974
 F     -5.7969994084     2.5832405895     7.1964138942
          8
Energy: -26.86183146050385 Kcal/mole
 H     -3.9456324288     2.9342374935     5.0285572227
 F     -3.7449862828     3.3234430581     5.8342551516
 H     -5.4143825432     1.7270107150     4.1328684937
 F     -4.6478336780     2.0797859459     3.7739235486
 H     -6.4880808140     1.7065254905     5.9512145596
 F     -6.6748798613     1.2979374768     5.1518079353
 H     -5.0221384010     2.9174794790     6.8375796855
 F     -5.7971487488     2.5834984873     7.1963339997
          8
Energy: -26.862349433523917 Kcal/mole
 H     -3.9424203093     2.9317389244     5.0289752071
 F     -3.7451566783     3.3235756014     5.8342329785
 H     -5.4147359691     1.7309337922     4.1359328435
 F     -4.6478149296     2.0795778357     3.7737609919
 H     -6.4919274409     1.7058413274     5.9512242941
 F     -6.6763157022     1.3020632292     5.1488196476
 H     -5.0222022236     2.9210432403     6.8407932833
 F     -5.7971453631     2.5833094380     7.1961635258
          8
Energy: -26.86186572896773 Kcal/mole
 H     -3.9422342188     2.9344872575     5.0275984884
 F     -3.7451665500     3.3234298087     5.8343060102
 H     -5.4163622591     1.7308002760     4.1323378863
 F     -4.6477286586     2.0795849185     3.7739516961
 H     -6.4893946742     1.7056252614     5.9507466148
 F     -6.6764500596     1.3020746910     5.1488449874
 H     -5.0226979007     2.9168076766     6.8357516231
 F     -5.7971190686     2.5835341248     7.1964309742
          8
Energy: -26.86222783951203 Kcal/mole
 H     -3.9400210718     2.9315985523     5.0284597221
 F     -3.7452839523     3.3235830478     5.8342603238
 H     -5.4138318193     1.7296328982     4.1365908545
 F     -4.6478628926     2.0796468452     3.7737260859
 H     -6.4881902247     1.7113938899     5.9475330604
 F     -6.6765139528     1.3017686786     5.1490154591
 H     -5.0216515421     2.9177667931     6.8389019468
 F     -5.7971745755     2.5834832459     7.1962638568
          8
Energy: -26.86147602981123 Kcal/mole
 H     -3.9417018607     2.9333378451     5.0280237787
 F     -3.7451947904     3.3234907824     5.8342834495
 H     -5.4137071933     1.7278381896     4.1351149205
 F     -4.6478695037     2.0797420503     3.7738043808
 H     -6.4838498923     1.7096877554     5.9473702871
 F     -6.6767441975     1.3018591851     5.1490240938
 H     -5.0147790027     2.9120253876     6.8366367158
 F     -5.7919199105     2.5795261315     7.1921437539
          8
Energy: -26.860785137142898 Kcal/mole
 H     -3.9376653236     2.9300110803     5.0292573326
 F     -3.7389604090     3.3181456316     5.8359523970
 H     -5.4148325783     1.7297199751     4.1345548728
 F     -4.6478098047     2.0796422259     3.7738340901
 H     -6.4793887678     1.7000804443     5.9511169602
 F     -6.6769808498     1.3023688308     5.1488253415
 H     -5.0155261028     2.9123033975     6.8352672858
 F     -5.7918802785     2.5795113837     7.1922163990
          8
Energy: -26.86220150815194 Kcal/mole
 H     -3.9374972930     2.9242003178     5.0320388492
 F     -3.7389693226     3.3184538791     5.8358048440
 H     -5.4155833330     1.7289662439     4.1322177045
 F     -4.6477699789     2.0796822096     3.7739580714
 H     -6.4850313057     1.7061712504     5.9494402129
 F     -6.6766815262     1.3020457276     5.1489142890
 H     -5.0159640036     2.9157783420     6.8375806248
 F     -5.7918570489     2.5793270459     7.1920936817
          8
Energy: -26.86160442184729 Kcal/mole
 H     -3.9336096230     2.9286697637     5.0289156831
 F     -3.7391755545     3.3182167854     5.8359705207
 H     -5.4161006263     1.7325212992     4.1345622065
 F     -4.6477425377     2.0794936222     3.7738337010
 H     -6.4943791736     1.7100234046     5.9435030127
 F     -6.6793848136     1.3019568234     5.1434132812
 H     -5.0157659675     2.9155949939     6.8378402513
 F     -5.7918675543     2.5793367721     7.1920799091
          8
Energy: -26.862299428502467 Kcal/mole
 H     -3.9401800654     2.9316890775     5.0290753958
 F     -3.7388270077     3.3180566178     5.8359620483
 H     -5.4161678659     1.7314719586     4.1334060956
 F     -4.6477389707     2.0795492873     3.7738950300
 H     -6.4898081164     1.7072828902     5.9438250147
 F     -6.6796272976     1.3021022014     5.1433961997
 H     -5.0158559421     2.9135687990     6.8357324998
 F     -5.7918627813     2.5794442571     7.1921917205
          8
Energy: -26.86124666559442 Kcal/mole
 H     -3.9402921732     2.9309231401     5.0294706240
 F     -3.7388210607     3.3180972490     5.8359410824
 H     -5.4145737243     1.7305728492     4.1359287178
 F     -4.6478235363     2.0795969829     3.7737612108
 H     -6.4814306616     1.7003938666     5.9441900831
 F     -6.6748599245     1.2971122544     5.1436664659
 H     -5.0152733802     2.9128379349     6.8363174546
 F     -5.7918936849     2.5794830277     7.1921606900
          8
Energy: -26.862348276532458 Kcal/mole
 H     -3.9343265758     2.9273385667     5.0297328756
 F     -3.7391375218     3.3182874023     5.8359271706
 H     -5.4161978386     1.7306061830     4.1325014929
 F     -4.6477373808     2.0795952147     3.7739430171
 H     -6.4855921029     1.7012178834     5.9447684320
 F     -6.6746391696     1.2970685423     5.1436357859
 H     -5.0153730106     2.9148873594     6.8380304913
 F     -5.7918883997     2.5793743105     7.1920698173
          8
Energy: -26.861668435531925 Kcal/mole
 H     -3.9362921868     2.9298180304     5.0290132801
 F     -3.7390332507     3.3181558725     5.8359653434
 H     -5.4150027319     1.7256154720     4.1301585903
 F     -4.6478007784     2.0798599603     3.7740673027
 H     -6.4853653168     1.7036046915     5.9435060119
 F     -6.6746512001     1.2969419276     5.1437027543
 H     -5.0149038813     2.9117553868     6.8361117427
 F     -5.7919132860     2.5795404544     7.1921716025
          8
Energy: -26.861573458141265 Kcal/mole
 H     -3.9398187503     2.9313591357     5.0291433798
 F     -3.7388461747     3.3180741204     5.8359584419
 H     -5.4123550226     1.7280540656     4.1381748746
 F     -4.6479412333     2.0797305986     3.7736420573
 H     -6.4882851998     1.7028664566     5.9445656952
 F     -6.6744963071     1.2969810893     5.1436465406
 H     -5.0170413093     2.9156124010     6.8350764078
 F     -5.7917999003     2.5793358487     7.1922265246
          8
Energy: -26.86233963101631 Kcal/mole
 H     -3.9362531165     2.9284825594     5.0296478392
 F     -3.7390353233     3.3182267161     5.8359316815
 H     -5.4153708671     1.7296852655     4.1333741462
 F     -4.6477812497     2.0796440672     3.7738967249
 H     -6.4890916827     1.6982604949     5.9502820776
 F     -6.6771093598     1.2961420097     5.1478862420
 H     -5.0165971339     2.9158720698     6.8362869918
 F     -5.7918234628     2.5793220739     7.1921623060
          8
Energy: -26.861355746327206 Kcal/mole
 H     -3.9384175828     2.9278734769     5.0304754390
 F     -3.7389205034     3.3182590265     5.8358877793
 H     -5.4146924478     1.7264584100     4.1316611354
 F     -4.6478172383     2.0798152444     3.7739875961
 H     -6.4892508700     1.6988260171     5.9500357022
 F     -6.6771009152     1.2961120101     5.1478993117
 H     -5.0188091139     2.9146898802     6.8304108920
 F     -5.7917061224     2.5793847863     7.1924740195
          8
Energy: -26.8617244384057 Kcal/mole
 H     -3.9358102905     2.9262769705     5.0306095772
 F     -3.7390588142     3.3183437175     5.8358806636
 H     -5.4166215537     1.7332299732     4.1341328729
 F     -4.6477149037     2.0794560286     3.7738564762
 H     -6.4849653814     1.6992243217     5.9488189954
 F     -6.6773282505     1.2960908810     5.1479638552
 H     -5.0148046804     2.9122706670     6.8311765738
 F     -5.7882075431     2.5751875896     7.1904981719
          8
Energy: -26.85994991705249 Kcal/mole
 H     -3.9419525370     2.9248409637     5.0328387309
 F     -3.7387329822     3.3184198944     5.8357624121
 H     -5.4132618512     1.7227728250     4.1310637885
 F     -4.6478931281     2.0800107562     3.7740192840
 H     -6.4879171739     1.7000732629     5.9490944155
 F     -6.6771716647     1.2960458466     5.1479492448
 H     -5.0134591650     2.9086499173     6.8306981956
 F     -5.7882789196     2.5753796620     7.1905235488
          8
Energy: -26.862093341502373 Kcal/mole
 H     -3.9391091340     2.9280822548     5.0305458823
 F     -3.7388838182     3.3182479514     5.8358840424
 H     -5.4166260485     1.7315802117     4.1325301254
 F     -4.6477146652     2.0795435447     3.7739414982
 H     -6.4835577478     1.6999052844     5.9481361900
 F     -6.6774029222     1.2960547575     5.1480000764
 H     -5.0134780109     2.9120561367     6.8338439125
 F     -5.7882779198     2.5751989699     7.1903566758
          8
Energy: -26.860141720364823 Kcal/mole
 H     -3.9364158826     2.9250104968     5.0313758287
 F     -3.7390266889     3.3184109010     5.8358400157
 H     -5.4180682525     1.7351519607     4.1328815961
 F     -4.6476381596     2.0793540716     3.7739228535
 H     -6.4828325471     1.6946062970     5.9506121850
 F     -6.6774413924     1.2963358565     5.1478687306
 H     -5.0137822029     2.9091710252     6.8304858573
 F     -5.7882617832     2.5753520184     7.1905348128
          8
Energy: -26.861685233360646 Kcal/mole
 H     -3.9350825780     2.9329329734     5.0312056662
 F     -3.7392226304     3.3269697484     5.8357321734
 H     -5.4155721144     1.7317631912     4.1349572739
 F     -4.6477705740     2.0795338380     3.7738127436
 H     -6.4863777371     1.7023691085     5.9475663749
 F     -6.6772533283     1.2959240573     5.1480303038
 H     -5.0144410085     2.9160652370     6.8355686221
 F     -5.7882268351     2.5749862964     7.1902651839
          8
Energy: -26.86117844682903 Kcal/mole
 H     -3.9404883108     2.9358236754     5.0297811509
 F     -3.7461517113     3.3274954291     5.8358304815
 H     -5.4156703828     1.7276626033     4.1307492730
 F     -4.6477653611     2.0797513648     3.7740359683
 H     -6.4839390252     1.6987284568     5.9488212215
 F     -6.6773826963     1.2961171854     5.1479637371
 H     -5.0159055362     2.9146723990     6.8310704276
 F     -5.7881491452     2.5750601833     7.1905038027
          8
Energy: -26.859909404731326 Kcal/mole
 H     -3.9391784594     2.9303581931     5.0321453951
 F     -3.7462211959     3.3277853603     5.8357050638
 H     -5.4128060407     1.7253458392     4.1345869089
 F     -4.6479173078     2.0798742637     3.7738323906
 H     -6.4880003925     1.7057230237     5.9462384868
 F     -6.6771672502     1.2957461398     5.1481007452
 H     -5.0160541690     2.9178496254     6.8337786700
 F     -5.7881412606     2.5748916387     7.1903601367
          8
Energy: -26.860844660451335 Kcal/mole
 H     -3.9425831530     2.9324142147     5.0319564726
 F     -3.7460405848     3.3276762931     5.8357150857
 H     -5.4149509593     1.7301156171     4.1346866758
 F     -4.6478035248     2.0796212380     3.7738270982
 H     -6.4883677509     1.6995941436     5.9494421173
 F     -6.6771477627     1.2960712628     5.1479308000
 H     -5.0155713165     2.9166274391     6.8336512474
 F     -5.7881668748     2.5749564729     7.1903668962
          8
Energy: -26.86203001154547 Kcal/mole
 H     -3.9446304759     2.9381878751     5.0206863685
 F     -3.7487567998     3.3357079264     5.8234941362
 H     -5.4135694731     1.7300844002     4.1375783409
 F     -4.6478768095     2.0796228940     3.7736737021
 H     -6.4875943363     1.6997786582     5.9491665954
 F     -6.6771887905     1.2960614747     5.1479454158
 H     -5.0196296902     2.9203980855     6.8285566099
 F     -5.7879515875     2.5747564488     7.1906371550
          8
Energy: -26.862448373902083 Kcal/mole
 H     -3.9460569037     2.9398957248     5.0201921416
 F     -3.7486811311     3.3356173289     5.8235203538
 H     -5.4136890497     1.7283175734     4.1356195745
 F     -4.6478704662     2.0797166201     3.7737776101
 H     -6.4833230750     1.7010766506     5.9474868999
 F     -6.6774153711     1.2959926192     5.1480345198
 H     -5.0174470028     2.9183190613     6.8312271439
 F     -5.7880673740     2.5748667362     7.1904954893
          8
Energy: -26.86155588873271 Kcal/mole
 H     -3.9434384975     2.9411745163     5.0189254867
 F     -3.7488200315     3.3355494920     5.8235875469
 H     -5.4128431893     1.7260148861     4.1351645027
 F     -4.6479153372     2.0798387723     3.7738017506
 H     -6.4872769238     1.6961128155     5.9509276851
 F     -6.6772056285     1.2962559392     5.1478519941
 H     -5.0201956915     2.9164749994     6.8351148358
 F     -5.7894339454     2.5709381975     7.1953450778
          8
Energy: -26.862599304701973 Kcal/mole
 H     -3.9492080476     2.9459017911     5.0245859346
 F     -3.7573843710     3.3469005568     5.8266412114
 H     -5.4135147008     1.7268753731     4.1345833633
 F     -4.6478797150     2.0797931255     3.7738325787
 H     -6.4861686238     1.6983138928     5.9495644388
 F     -6.6772644213     1.2961391771     5.1479243111
 H     -5.0235610818     2.9208328960     6.8321655258
 F     -5.7892554192     2.5707070211     7.1955015319
          8
Energy: -26.862050214122405 Kcal/mole
 H     -3.9548957982     2.9487607794     5.0245434593
 F     -3.7570826490     3.3467488941     5.8266434647
 H     -5.4137397485     1.7281630896     4.1353621130
 F     -4.6478677768     2.0797248151     3.7737912678
 H     -6.4883873710     1.6973703729     5.9505622284
 F     -6.6771467219     1.2961892287     5.1478713807
 H     -5.0196268793     2.9171345709     6.8369682795
 F     -5.7894641196     2.5709032087     7.1952467569
          8
Energy: -26.86073457213965 Kcal/mole
 H     -3.9464294298     2.9424678597     5.0256517833
 F     -3.7575317703     3.3470827189     5.8265846706
 H     -5.4108680018     1.7247785626     4.1438546527
 F     -4.6381395576     2.0658800478     3.7868819251
 H     -6.4907585157     1.6963611783     5.9516191246
 F     -6.6770209381     1.2962427641     5.1478153148
 H     -5.0242072957     2.9221742902     6.8320995375
 F     -5.7892211391     2.5706358633     7.1955050324
          8
Energy: -26.861860937725595 Kcal/mole
 H     -3.9470362209     2.9405711537     5.0267564794
 F     -3.7574995814     3.3471833348     5.8265260691
 H     -5.4067360457     1.7194934777     4.1476611185
 F     -4.6383587483     2.0661604094     3.7866800008
 H     -6.4864390219     1.7022279958     5.9476527199
 F     -6.6772500773     1.2959315430     5.1480257234
 H     -5.0221242035     2.9219620900     6.8363114910
 F     -5.7893316423     2.5706471200     7.1952815980
          8
Energy: -26.86213686813835 Kcal/mole
 H     -3.9461971395     2.9420871578     5.0257894644
 F     -3.7575440927     3.3471029143     5.8265773670
 H     -5.4055375902     1.7178649316     4.1409390951
 F     -4.6330634674     2.0595119722     3.7839376535
 H     -6.4873269862     1.6949738950     5.9515055302
 F     -6.6772029728     1.2963163563     5.1478213407
 H     -5.0238422777     2.9219591419     6.8326605394
 F     -5.7892405025     2.5706472764     7.1954752725
          8
Energy: -26.862430039495678 Kcal/mole
 H     -3.9480722395     2.9377146204     5.0284622936
 F     -3.7574446230     3.3473348673     5.8264355796
 H     -5.4045992429     1.7147523643     4.1399738172
 F     -4.6331132446     2.0596770867     3.7839888593
 H     -6.4858413849     1.7005298662     5.9483704679
 F     -6.6772817805     1.2960216248     5.1479876485
 H     -5.0201109582     2.9198848850     6.8386013482
 F     -5.7894384403     2.5707573109     7.1951601263
          8
Energy: -26.862997547713007 Kcal/mole
 H     -3.9450134910     2.9402792479     5.0264283434
 F     -3.7576068825     3.3471988197     5.8265434759
 H     -5.4034018682     1.7141245697     4.1419519715
 F     -4.6331767625     2.0597103898     3.7838839228
 H     -6.4859488468     1.6978803699     5.9497293691
 F     -6.6772760799     1.2961621745     5.1479155619
 H     -5.0222855023     2.9204177182     6.8344638619
 F     -5.7893230858     2.5707290454     7.1953796104
          8
Energy: -26.862464428067938 Kcal/mole
 H     -3.9475728016     2.9405103782     5.0269147506
 F     -3.7574711170     3.3471865588     5.8265176731
 H     -5.4057324548     1.7174512314     4.1401202457
 F     -4.6330531303     2.0595339181     3.7839810916
 H     -6.4835852423     1.6971497802     5.9495273587
 F     -6.6774014637     1.2962009306     5.1479262781
 H     -5.0219308165     2.9199804441     6.8347946096
 F     -5.7893419011     2.5707522417     7.1953620650
          8
Energy: -26.862791577249084 Kcal/mole
 H     -3.9454555492     2.9404414234     5.0264495519
 F     -3.7575834324     3.3471902167     5.8265423508
 H     -5.4030174119     1.7135196519     4.1421942872
 F     -4.6331971571     2.0597424793     3.7838710685
 H     -6.4876388965     1.6992181058     5.9494593253
 F     -6.6771864267     1.2960912107     5.1479298871
 H     -5.0224795297     2.9226467948     6.8362230591
 F     -5.7893127931     2.5706107980     7.1952862891
          8
Energy: -26.86257439971294 Kcal/mole
 H     -3.9476697277     2.9412871069     5.0265432462
 F     -3.7574659753     3.3471453551     5.8265373806
 H     -5.4043966372     1.7122620256     4.1379848515
 F     -4.6331239924     2.0598091935     3.7840943693
 H     -6.4864949010     1.6986510692     5.9494729090
 F     -6.6772471130     1.2961212907     5.1479291666
 H     -5.0208626426     2.9184009208     6.8355443299
 F     -5.7893985652     2.5708360318     7.1953222941
          8
Energy: -26.862148453431587 Kcal/mole
 H     -3.9439795998     2.9412517487     5.0256932713
 F     -3.7576617281     3.3471472308     5.8265824698
 H     -5.4016080899     1.7098227347     4.1416265201
 F     -4.6332719183     2.0599385922     3.7839011872
 H     -6.4860275382     1.6984015133     5.9494868263
 F     -6.6772719055     1.2961345290     5.1479284283
 H     -5.0220213186     2.9179594584     6.8326572085
 F     -5.7893371001     2.5708594504     7.1954754492
          8
Energy: -26.862438789636172 Kcal/mole
 H     -3.9503951873     2.9418245885     5.0269237375
 F     -3.7573213960     3.3471168430     5.8265171964
 H     -5.4090403355     1.7147664312     4.1407410977
 F     -4.6406002263     2.0661355414     3.7844707692
 H     -6.4852196983     1.7016702039     5.9476439931
 F     -6.6773147596     1.2959611326     5.1480261863
 H     -5.0210948233     2.9193876193     6.8360033754
 F     -5.7893862486     2.5707836897     7.1952979428
          8
Energy: -26.86256364706344 Kcal/mole
 H     -3.9438839718     2.9394322291     5.0245386485
 F     -3.7536043461     3.3426253061     5.8258613093
 H     -5.4095092861     1.7188703410     4.1437385753
 F     -4.6405753495     2.0659178385     3.7843117599
 H     -6.4871365216     1.7014063177     5.9482356730
 F     -6.6772130765     1.2959751311     5.1479947991
 H     -5.0205132664     2.9186429473     6.8365261318
 F     -5.7894170988     2.5708231929     7.1952702118
          8
Energy: -26.86252813315471 Kcal/mole
 H     -3.9435178158     2.9400773061     5.0241275982
 F     -3.7536237698     3.3425910862     5.8258831146
 H     -5.4095259489     1.7162474273     4.1435182038
 F     -4.6405025307     2.0594592315     3.7806165096
 H     -6.4859444338     1.7012210684     5.9480453959
 F     -6.6772763140     1.2959849582     5.1480048928
 H     -5.0194827921     2.9166624013     6.8368219782
 F     -5.7894717631     2.5709282562     7.1952545178
          8
Energy: -26.862653438840425 Kcal/mole
 H     -3.9409733907     2.9379216773     5.0246146287
 F     -3.7537587457     3.3427054374     5.8258572787
 H     -5.4113901263     1.7174140073     4.1406521847
 F     -4.6404036404     2.0593973471     3.7807685453
 H     -6.4861838735     1.6986190533     5.9494149021
 F     -6.6772636123     1.2961229891     5.1479322437
 H     -5.0208341333     2.9204197424     6.8375674759
 F     -5.7894000776     2.5707289380     7.1952149709
          8
Energy: -26.862895720055576 Kcal/mole
 H     -3.9455445548     2.9364781887     5.0264292131
 F     -3.7535162560     3.3427820111     5.8257610192
 H     -5.4098807517     1.7134712138     4.1401125650
 F     -4.6404837093     2.0596065032     3.7807971708
 H     -6.4855457351     1.6971714212     5.9499878904
 F     -6.6772974641     1.2961997826     5.1479018480
 H     -5.0202923952     2.9189913685     6.8373385595
 F     -5.7894288155     2.5708047099     7.1952271144
          8
Energy: -26.862842820937118 Kcal/mole
 H     -3.9417772176     2.9358995724     5.0258280836