          8
Energy: -26.85832833495155 Kcal/mole
 H     -3.9314771112     2.9415313806     5.0154727757
 F     -3.7311522014     3.3340377523     5.8196479299
 H     -5.4443153317     1.7792807470     4.1241883167
 F     -4.6571196403     2.0883016577     3.7696209464
 H     -6.5076877875     1.7641265990     5.9326264963
 F     -6.7237421733     1.3819291238     5.1275584294
 H     -5.0018569692     2.9277149792     6.8322145491
 F     -5.7786202773     2.5965137469     7.1897526686
          8
Energy: -26.85946613699346 Kcal/mole
 H     -3.9312954955     2.9366764921     5.0265413091
 F     -3.7295051960     3.3348707042     5.8275475790
 H     -5.4433179869     1.7680733318     4.1163557280
 F     -4.6571725472     2.0888961852     3.7700364471
 H     -6.5113861004     1.7645534348     5.9334069061
 F     -6.7235459864     1.3819064812     5.1275170305
 H     -5.0030984567     2.9302563230     6.8318834629
 F     -5.7785544193     2.5963789345     7.1897702320
          8
Energy: -26.85653153364737 Kcal/mole
 H     -3.9412415930     2.9338593845     5.0161415275
 F     -3.7400257737     3.3214138320     5.8224930292
 H     -5.4344345895     1.7600507832     4.1286418169
 F     -4.6576437909     2.0893217629     3.7693846985
 H     -6.5236020796     1.7737973776     5.9320792821
 F     -6.7228979569     1.3814161114     5.1275874579
 H     -5.0169390861     2.9184324666     6.8359620367
 F     -5.8026700422     2.6023800267     7.1875679521
          8
Energy: -26.858712560597013 Kcal/mole
 H     -3.9534455347     2.9405538951     5.0269282212
 F     -3.7578022164     3.3424538484     5.8276086316
 H     -5.4370478119     1.7677213437     4.1299231455
 F     -4.6575051654     2.0889148574     3.7693167269
 H     -6.5282381341     1.7684409253     5.9357984148
 F     -6.7226520249     1.3817002588     5.1273901665
 H     -5.0341851059     2.9366299321     6.8418151211
 F     -5.8133155611     2.6039845517     7.1928019935
          8
Energy: -26.856368281615147 Kcal/mole
 H     -3.9503733475     2.9362917897     5.0285026893
 F     -3.7630322134     3.3484799597     5.8259318159
 H     -5.4397326634     1.7635032180     4.1222982207
 F     -4.6498452018     2.0713118268     3.7726975079
 H     -6.5369750941     1.7835368900     5.9219109730
 F     -6.7305237928     1.3920692913     5.1155729419
 H     -5.0388841057     2.9437004481     6.8382127680
 F     -5.8130662900     2.6036094771     7.1929930900
          8
Energy: -26.853326970879266 Kcal/mole
 H     -3.9420112609     2.9547934710     5.0173293435
 F     -3.7634758028     3.3474984883     5.8265245361
 H     -5.4377713749     1.7616795118     4.1251012223
 F     -4.6499492436     2.0714085702     3.7725488152
 H     -6.5253104568     1.7727690074     5.9241708477
 F     -6.7311425748     1.3926405026     5.1154530607
 H     -5.0385581178     2.9416138207     6.8369329387
 F     -5.8130835829     2.6037201679     7.1930609820
          8
Energy: -26.857559373238786 Kcal/mole
 H     -3.9574927856     2.9486921293     5.0239144758
 F     -3.7626545437     3.3478221504     5.8261752100
 H     -5.4399157082     1.7521063764     4.1323239202
 F     -4.6636591034     2.0905179445     3.7804826292
 H     -6.5267773672     1.7646249151     5.9403974128
 F     -6.7286926984     1.3673851645     5.1389488620
 H     -5.0422120080     2.9433432712     6.8307086113
 F     -5.8128897525     2.6036284245     7.1933911682
          8
Energy: -26.860252275558025 Kcal/mole
 H     -3.9703197070     2.9536516013     5.0302549850
 F     -3.7810402351     3.3646842765     5.8278228012
 H     -5.4396710309     1.7435971927     4.1369804375
 F     -4.6597749955     2.0705677034     3.7823800159
 H     -6.5260067266     1.7613302128     5.9418274207
 F     -6.7287335791     1.3675599409     5.1388730034
 H     -5.0544146540     2.9566669650     6.8379932071
 F     -5.8260442642     2.6132642120     7.1951364470
          8
Energy: -26.854274293518586 Kcal/mole
 H     -3.9499915144     2.9477303343     5.0269316978
 F     -3.7717159080     3.3539127862     5.8295042017
 H     -5.4331311931     1.7420057847     4.1495930539
 F     -4.6601219187     2.0706521239     3.7817109457
 H     -6.5334960351     1.7651787517     5.9417844689
 F     -6.7283362886     1.3673557848     5.1388752819
 H     -5.0519607527     2.9536453543     6.8404206752
 F     -5.8261744380     2.6134245015     7.1950076755
          8
Energy: -26.85902830765093 Kcal/mole
 H     -3.9608048518     2.9565910822     5.0249799540
 F     -3.7711422854     3.3534427440     5.8296077372
 H     -5.4392096588     1.7433728071     4.1377869052
 F     -4.6597994702     2.0705796065     3.7823372346
 H     -6.5339010464     1.7633528900     5.9427844749
 F     -6.7283148037     1.3674526425     5.1388222338
 H     -5.0522710269     2.9497530718     6.8360595103
 F     -5.8261579787     2.6136309781     7.1952390252
          8
Energy: -26.854915350959686 Kcal/mole
 H     -3.9699432914     2.9466129247     5.0375271963
 F     -3.7764458250     3.3433698996     5.8412881268
 H     -5.4580807925     1.7810994251     4.1279888824
 F     -4.6798153848     2.1133549397     3.7747209557
 H     -6.5265815441     1.7468637459     5.9479156255
 F     -6.7326155247     1.3625769788     5.1412169957
 H     -5.0464379354     2.9443006366     6.8398019074
 F     -5.8187207118     2.6029384352     7.1974891460
          8
Energy: -26.85862629575479 Kcal/mole
 H     -3.9641971185     2.9632712862     5.0190550179
 F     -3.7627442431     3.3542674696     5.8236839532
 H     -5.4569164438     1.7811811672     4.1306185391
 F     -4.6798771508     2.1133506035     3.7745814585
 H     -6.5133705462     1.7513148990     5.9460459611
 F     -6.7275743178     1.3763659674     5.1370842544
 H     -5.0294605401     2.9295846876     6.8365694984
 F     -5.7958737311     2.5789336928     7.1978778162
          8
Energy: -26.860306811975164 Kcal/mole
 H     -3.9682613452     2.9631027649     5.0201660932
 F     -3.7625286453     3.3542764093     5.8236250132
 H     -5.4566907550     1.7779565259     4.1283865506
 F     -4.6877932743     2.1186199109     3.7628265387
 H     -6.5066837204     1.7361588147     5.9618508296
 F     -6.7136101687     1.3556792963     5.1535774965
 H     -5.0182505855     2.9222425321     6.8455319723
 F     -5.7864236465     2.5804827546     7.2115912610
          8
Energy: -26.86149127569996 Kcal/mole
 H     -3.9579588218     2.9535968349     5.0217155290
 F     -3.7534310165     3.3373546905     5.8290489701
 H     -5.4578598565     1.7798602465     4.1276937180
 F     -4.6877312562     2.1185189229     3.7628632918
 H     -6.5088737045     1.7392722067     5.9609359338
 F     -6.7134939951     1.3555141381     5.1536260296
 H     -5.0155424556     2.9201700931     6.8493174356
 F     -5.7865673065     2.5805926927     7.2113904509
          8
Energy: -26.85801815879725 Kcal/mole
 H     -3.9643774461     2.9472549011     5.0164770975
 F     -3.7632858238     3.3347326458     5.8228964405
 H     -5.4559364533     1.7806466610     4.1324450596
 F     -4.6878332882     2.1184772055     3.7626112441
 H     -6.4956805799     1.7400045028     5.9564373881
 F     -6.7047468925     1.3517517191     5.1524224300
 H     -5.0158189401     2.9171008999     6.8458811460
 F     -5.7865526397     2.5807555063     7.2115727381
          8
Energy: -26.850051543485392 Kcal/mole
 H     -3.9556786439     2.9456854960     5.0151142454
 F     -3.7637472751     3.3348158991     5.8229687367
 H     -5.4244497563     1.7613687832     4.1235299422
 F     -4.6552305378     2.1027297072     3.7592999139
 H     -6.4997743172     1.7374695050     5.9587074477
 F     -6.7045297292     1.3518861948     5.1523020086
 H     -5.0196467566     2.9218476337     6.8422519346
 F     -5.7863495828     2.5805037030     7.2117652594
          8
Energy: -26.859155526893517 Kcal/mole
 H     -3.9507609052     2.9392572748     5.0295574321
 F     -3.7487183654     3.3228345057     5.8376021833
 H     -5.4450688533     1.7842239145     4.1213173172
 F     -4.6704897972     2.1182157287     3.7616428061
 H     -6.5122310362     1.7528614196     5.9547908149
 F     -6.7121283084     1.3700459250     5.1458517705
 H     -5.0145804457     2.9161043841     6.8475826638
 F     -5.7866183389     2.5808083692     7.2114824765
          8
Energy: -26.85488597206725 Kcal/mole
 H     -3.9466336156     2.9262524018     5.0348383116
 F     -3.7489373085     3.3235243842     5.8373220448
 H     -5.4337666466     1.7589128241     4.1394440632
 F     -4.6546511550     2.0757749977     3.7741135090
 H     -6.4995532179     1.7453377539     5.9550769189
 F     -6.7128008374     1.3704450380     5.1458365934
 H     -5.0143011577     2.9186137095     6.8505088885
 F     -5.7866331545     2.5806752552     7.2113272471
          8
Energy: -26.857939951936203 Kcal/mole
 H     -3.9513669137     2.9376969677     5.0304519795
 F     -3.7486862180     3.3229172764     5.8375547296
 H     -5.4401052847     1.7665162225     4.1275112594
 F     -4.6648120858     2.0987655676     3.7677615849
 H     -6.5143992556     1.7548583830     5.9543758108
 F     -6.7120132894     1.3699399907     5.1458737855
 H     -5.0125461018     2.9190220309     6.8546781201
 F     -5.7867262562     2.5806535947     7.2111060790
          8
Energy: -26.856603685191487 Kcal/mole
 H     -3.9467768320     2.9341316079     5.0310232651
 F     -3.7489297112     3.3231064105     5.8375244242
 H     -5.4288417344     1.7505792564     4.1363936508
 F     -4.6654095911     2.0996109869     3.7672903945
 H     -6.4886817630     1.7213879652     5.9601240655
 F     -6.6847835076     1.3327063292     5.1530554863
 H     -5.0129144493     2.8991649465     6.8606479543
 F     -5.7816736322     2.5572382978     7.2253183338
          8
Energy: -26.855764562248027 Kcal/mole
 H     -3.9541124121     2.9523635024     5.0243111203
 F     -3.7485405757     3.3221392506     5.8378804880
 H     -5.4410223636     1.7787460685     4.1387018200
 F     -4.6785958221     2.1238796535     3.7638984352
 H     -6.4838194362     1.7106764160     5.9640011795
 F     -6.6850414428     1.3332745522     5.1528498143
 H     -5.0148970768     2.9050603532     6.8620548281
 F     -5.7815684584     2.5569255601     7.2252437024
          8
Energy: -26.854875920536244 Kcal/mole
 H     -3.9500579910     2.9497378917     5.0244951429
 F     -3.7487556533     3.3222785332     5.8378707260
 H     -5.4379691110     1.7823005685     4.1146415225
 F     -4.6716087996     2.1315294692     3.7518467485
 H     -6.4730959262     1.7301280685     5.9573077740
 F     -6.6821127379     1.3484056751     5.1501590970
 H     -5.0125405370     2.9008289489     6.8630086646
 F     -5.7816934674     2.5571500263     7.2251931036
          8
Energy: -26.859085078907157 Kcal/mole
 H     -3.9491639686     2.9393494746     5.0266750083
 F     -3.7402553013     3.3109673060     5.8385532973
 H     -5.4332432730     1.7740763049     4.1241020296
 F     -4.6666439972     2.1179493151     3.7567249708
 H     -6.4812177675     1.7132630236     5.9603584841
 F     -6.6841950936     1.3414547555     5.1470640621
 H     -4.9962251153     2.8879997576     6.8582236659
 F     -5.7652292505     2.5478833567     7.2240685427
          8
Energy: -26.85656279835274 Kcal/mole
 H     -3.9484721458     2.9479149848     5.0287865915
 F     -3.7384964540     3.3183238671     5.8409420376
 H     -5.4312950820     1.7709438546     4.1252139687
 F     -4.6667473443     2.1181154843     3.7566659850
 H     -6.4854168658     1.7223276965     5.9571913315
 F     -6.6839723412     1.3409738956     5.1472320722
 H     -4.9958438383     2.8953852561     6.8660582634
 F     -5.7652494763     2.5474915731     7.2236529354
          8
Energy: -26.855288080617555 Kcal/mole
 H     -3.9405560131     2.9421560095     5.0294289004
 F     -3.7389163865     3.3186293674     5.8409079646
 H     -5.4343663219     1.7739083705     4.1215905045
 F     -4.6665844221     2.1179582236     3.7568582014
 H     -6.4842233852     1.7307414082     5.9528782868
 F     -6.6840356526     1.3405275676     5.1474608693
 H     -4.9980769008     2.8938707231     6.8598476423
 F     -5.7651310175     2.5475719156     7.2239823945
          8
Energy: -26.857723026670726 Kcal/mole
 H     -3.9333471683     2.9197471305     5.0384461751
 F     -3.7392987991     3.3198181067     5.8404296190
 H     -5.4200110927     1.7590876868     4.1335128805
 F     -4.6439672679     2.0916519796     3.7756777604
 H     -6.4818344678     1.7194815032     5.9576394697
 F     -6.6841623791     1.3411248796     5.1472082995
 H     -4.9990362719     2.8956760343     6.8595497714
 F     -5.7650801251     2.5474761480     7.2239981959
          8
Energy: -26.859449178942185 Kcal/mole
 H     -3.9375530781     2.9318600806     5.0335449837
 F     -3.7390756853     3.3191755427     5.8406896159
 H     -5.4161360581     1.7558226999     4.1388033689
 F     -4.6441728295     2.0918251796     3.7753971122
 H     -6.4775347116     1.7143516437     5.9589307425
 F     -6.6843904712     1.3413970068     5.1471398005
 H     -5.0005429829     2.8969054352     6.8575684992
 F     -5.7650001976     2.5474109311     7.2241032978
          8
Energy: -26.86066661884385 Kcal/mole
 H     -3.9361024125     2.9336972552     5.0323112471
 F     -3.7391526398     3.3190780848     5.8407550628
 H     -5.4184767066     1.7578709141     4.1356970283
 F     -4.6440486635     2.0917165265     3.7755618964
 H     -6.4847186503     1.7240279959     5.9562168022
 F     -6.6840093799     1.3408836986     5.1472837688
 H     -4.9964732738     2.8902043569     6.8597620859
 F     -5.7652160862     2.5477664078     7.2239869331
          8
Energy: -26.858438961015338 Kcal/mole
 H     -3.9482666955     2.9360411951     5.0342597370
 F     -3.7385073526     3.3189537442     5.8406516999
 H     -5.4166076698     1.7528655377     4.1350338028
 F     -4.6441478116     2.0919820502     3.7755970790
 H     -6.4801483396     1.7166042728     5.9585540104
 F     -6.6842518243     1.3412775100     5.1471597853
 H     -4.9951586456     2.8887545309     6.8611821264
 F     -5.7652858242     2.5478433177     7.2239116032
          8
Energy: -26.85979131524715 Kcal/mole
 H     -3.9327839225     2.9279679124     5.0342649938
 F     -3.7393286780     3.3193820132     5.8406514210
 H     -5.4165675303     1.7548426219     4.1369741356
 F     -4.6441499409     2.0918771704     3.7754941488
 H     -6.4870142757     1.7181115634     5.9595511759
 F     -6.6838876023     1.3411975517     5.1471068879
 H     -4.9956930496     2.8926656566     6.8637556122
 F     -5.7652574753     2.5476358415     7.2237750858
          8
Energy: -26.86118425786165 Kcal/mole
 H     -3.9400204540     2.9333850611     5.0334254354
 F     -3.7389447967     3.3190946460     5.8406959577
 H     -5.4190295796     1.7584223125     4.1350177209
 F     -4.6440193349     2.0916872761     3.7755979321
 H     -6.4800316089     1.7190455928     5.9573906107
 F     -6.6842580166     1.3411480036     5.1472215009
 H     -4.9961219820     2.8919683843     6.8621751343
 F     -5.7652347215     2.5476728302     7.2238589265
          8
Energy: -26.85858037344869 Kcal/mole
 H     -3.9278679773     2.9329155266     5.0307240529
 F     -3.7395894575     3.3191195537     5.8408392598
 H     -5.4152247218     1.7520200093     4.1371974408
 F     -4.6442211738     2.0920269035     3.7754823030
 H     -6.4799485725     1.7169958646     5.9583224608
 F     -6.6842624215     1.3412567369     5.1471720684
 H     -4.9983619302     2.8936540041     6.8590422441
 F     -5.7651158974     2.5475834120     7.2240251190
          8
Energy: -26.8574344214818 Kcal/mole
 H     -3.9342424340     2.9321522057     5.0325985051
 F     -3.7392513073     3.3191600461     5.8407398244
 H     -5.4185220025     1.7565959437     4.1344129357
 F     -4.6440462607     2.0917841608     3.7756300146
 H     -6.4757497104     1.7177360822     5.9569088661
 F     -6.6844851614     1.3412174701     5.1472470564
 H     -4.9934853913     2.8943501869     6.8575647798
 F     -5.7601192937     2.5393796091     7.2141560704
          8
Energy: -26.8587114854208 Kcal/mole
 H     -3.9217948102     2.9353206606     5.0341926713
 F     -3.7247379846     3.3170309655     5.8443499712
 H     -5.4168151299     1.7538451637     4.1355103963
 F     -4.6441368063     2.0919300833     3.7755717968
 H     -6.4751409086     1.7212792897     5.9550936610
 F     -6.6845174570     1.3410295111     5.1473433488
 H     -4.9946619598     2.9005359594     6.8494019483
 F     -5.7664300781     2.5561750564     7.2053212371
          8
Energy: -26.85880598125476 Kcal/mole
 H     -3.9242228000     2.9328025552     5.0359796856
 F     -3.7246091854     3.3171645451     5.8442551743
 H     -5.4178823521     1.7569990091     4.1361649125
 F     -4.6440801927     2.0917627791     3.7755370762
 H     -6.4808278912     1.7202426753     5.9570315388
 F     -6.6842157757     1.3410845011     5.1472405489
 H     -4.9835685433     2.8935769282     6.8513822313
 F     -5.7584355775     2.5557794053     7.2068578462
          8
Energy: -26.856980901235573 Kcal/mole
 H     -3.9311056044     2.9298039841     5.0292500854
 F     -3.7219072209     3.3029466673     5.8403540087
 H     -5.4159035823     1.7539900324     4.1375956767
 F     -4.6441851618     2.0919223984     3.7754611775
 H     -6.4869576501     1.7132798975     5.9507607651
 F     -6.6831121403     1.3331805938     5.1396276470
 H     -4.9843885729     2.8866717459     6.8432036421
 F     -5.7583920769     2.5561457092     7.2072917014
          8
Energy: -26.85804103858888 Kcal/mole
 H     -3.9188870222     2.9419301192     5.0342107225
 F     -3.7120120053     3.3184658794     5.8443419147
 H     -5.4141924884     1.7496870646     4.1371952612
 F     -4.6442759314     2.0921506608     3.7754824186
 H     -6.4817255857     1.7188182318     5.9468526331
 F     -6.6833896892     1.3328867979     5.1398349643
 H     -4.9812892028     2.8894024048     6.8524189242
 F     -5.7585564913     2.5560008541     7.2068028520
          8
Energy: -26.858322731933555 Kcal/mole
 H     -3.9404119025     2.9439310433     5.0324986864
 F     -3.7396532146     3.3333523727     5.8380643122
 H     -5.4196575702     1.7583467097     4.1335899227
 F     -4.6439860214     2.0916912867     3.7756736735
 H     -6.4818004930     1.7261573333     5.9461157889
 F     -6.6846214309     1.3455096516     5.1368815771
 H     -5.0003979056     2.8949321589     6.8436864827
 F     -5.7714511317     2.5525072700     7.2030068382
          8
Energy: -26.860342603637747 Kcal/mole
 H     -3.9384850323     2.9419498903     5.0329813428
 F     -3.7397554306     3.3334574683     5.8380387084
 H     -5.4224658557     1.7684233611     4.1313738575
 F     -4.6479836279     2.1075648088     3.7763395530
 H     -6.4892274757     1.7160445171     5.9376387720
 F     -6.6894717368     1.3329406574     5.1289220919
 H     -5.0000916280     2.8977216337     6.8470299452
 F     -5.7714673790     2.5523592948     7.2028294752
          8
Energy: -26.861410774016832 Kcal/mole
 H     -3.9395158346     2.9448000484     5.0318565723
 F     -3.7397007489     3.3333062740     5.8380983748
 H     -5.4213078033     1.7630076435     4.1286704557
 F     -4.6480450599     2.1078521001     3.7764829623
 H     -6.4899278198     1.7140543756     5.9387512451
 F     -6.6894345851     1.3330462298     5.1288630778
 H     -5.0028662360     2.9038787557     6.8470585769
 F     -5.7713201925     2.5520326737     7.2028279564
          8
Energy: -26.860745268355345 Kcal/mole
 H     -3.9442986926     2.9475684025     5.0317278923
 F     -3.7394470294     3.3331594192     5.8381052010
 H     -5.4209396575     1.7607552476     4.1272625720
 F     -4.6480645892     2.1079715845     3.7765576472
 H     -6.4914555368     1.7134516383     5.9394091009
 F     -6.6893535433     1.3330782037     5.1288281801
 H     -5.0014624846     2.8974818309     6.8527179546
 F     -5.7721480270     2.5469174527     7.2049074086
          8
Energy: -26.8615932259101 Kcal/mole
 H     -3.9320964596     2.9338545475     5.0369846334
 F     -3.7321741583     3.3154281615     5.8465040282
 H     -5.4174831564     1.7560191584     4.1298535390
 F     -4.6460578594     2.1011527032     3.7739394380
 H     -6.4958818999     1.7147766581     5.9398539935
 F     -6.6891187350     1.3330079144     5.1288045796
 H     -5.0075217585     2.9034217668     6.8424495018
 F     -5.7825167860     2.5640461715     7.1961385073
          8
Energy: -26.85895921752649 Kcal/mole
 H     -3.9363110195     2.9341813171     5.0378836013
 F     -3.7319505856     3.3154108271     5.8464563401
 H     -5.4229485237     1.7587448465     4.1204651960
 F     -4.6457679343     2.1010081118     3.7744374679
 H     -6.4850729771     1.7166444172     5.9363132882
 F     -6.6896921233     1.3329088341     5.1289924058
 H     -5.0104024138     2.9094036341     6.8419432685
 F     -5.7823639739     2.5637288472     7.1961653618
          8
Energy: -26.86182062930459 Kcal/mole
 H     -3.9311483193     2.9304841879     5.0383483059
 F     -3.7322244550     3.3156069513     5.8464316886
 H     -5.4223538675     1.7628664530     4.1258077468
 F     -4.6457994794     2.1007894701     3.7741540579
 H     -6.4963841522     1.7225756400     5.9362545412
 F     -6.6890920916     1.3325941964     5.1289955222
 H     -5.0056188692     2.8996518720     6.8430287838
 F     -5.7826177299     2.5642461557     7.1961077778
          8
Energy: -26.860795829941026 Kcal/mole
 H     -3.9322486453     2.9325298343     5.0376480750
 F     -3.7321660852     3.3154984344     5.8464688342
 H     -5.4215412058     1.7624587607     4.1223197506
 F     -4.6473291698     2.1030384096     3.7680737539
 H     -6.4906749107     1.7174326155     5.9373369223
 F     -6.6893949537     1.3328670220     5.1289381044
 H     -5.0032313981     2.8955101889     6.8443851935
 F     -5.7827443797     2.5644658624     7.1960358234
          8
Energy: -26.859652277390012 Kcal/mole
 H     -3.9254334299     2.9364238418     5.0341663810
 F     -3.7325276166     3.3152918663     5.8466535300
 H     -5.4188559056     1.7614913564     4.1272107823
 F     -4.6474716188     2.1030897282     3.7678142959
 H     -6.4930823269     1.7238113911     5.9348599749
 F     -6.6892672458     1.3325286427     5.1290695007
 H     -5.0054282605     2.9038524741     6.8474946954
 F     -5.7826278412     2.5640233234     7.1958708715
          8
Energy: -26.860301620681014 Kcal/mole
 H     -3.9318814964     2.9394143948     5.0343355655
 F     -3.7321855616     3.3151332244     5.8466445552
 H     -5.4191235467     1.7599916786     4.1252016115
 F     -4.6474574211     2.1031692826     3.7679208778
 H     -6.4870568736     1.7224480443     5.9340296019
 F     -6.6895868822     1.3326009651     5.1291135501
 H     -5.0057128012     2.9038384705     6.8468470042
 F     -5.7826127470     2.5640240663     7.1959052300
          8
Energy: -26.86054218371305 Kcal/mole
 H     -3.9335171601     2.9379094007     5.0354377703
 F     -3.7320987934     3.3152130609     5.8465860857
 H     -5.4189980673     1.7578606846     4.1234143267
 F     -4.6474640775     2.1032823269     3.7680156891
 H     -6.4986286952     1.7212993228     5.9355361699
 F     -6.6939508902     1.3309836406     5.1290673805
 H     -5.0073947938     2.9036329212     6.8429307482
 F     -5.7825235212     2.5640349702     7.1961129783
          8
Energy: -26.85903289167146 Kcal/mole
 H     -3.9319868891     2.9391966974     5.0344622152
 F     -3.7321799708     3.3151447728     5.8466378367
 H     -5.4189328784     1.7566528857     4.1223781943
 F     -4.6474675356     2.1033463979     3.7680706536
 H     -6.4961530087     1.7178856710     5.9382333193
 F     -6.6879425610     1.3251354301     5.1320987053
 H     -5.0219307875     2.9093791544     6.8484101075
 F     -5.8017004033     2.5709777531     7.1924055113
          8
Energy: -26.85963695756621 Kcal/mole
 H     -3.9316747175     2.9335920549     5.0370043670
 F     -3.7321965308     3.3154420861     5.8465029814
 H     -5.4163501737     1.7528518960     4.1242458740
 F     -4.6476045421     2.1035480316     3.7679715775
 H     -6.4988591330     1.7298508938     5.9329310075
 F     -6.6877990073     1.3245007026     5.1323799807
 H     -5.0232842790     2.9161706458     6.8461587778
 F     -5.8080019046     2.5884213395     7.1892151000
          8
Energy: -26.85999037530172 Kcal/mole
 H     -3.9383051371     2.9447538069     5.0305013311
 F     -3.7404597851     3.3264055558     5.8404940220
 H     -5.4180094349     1.7522248454     4.1200173196
 F     -4.6475165221     2.1035812952     3.7681958925
 H     -6.4970074317     1.7262110797     5.9351644545
 F     -6.6878805336     1.3231203146     5.1339314709
 H     -5.0167855887     2.9204511548     6.8377652618
 F     -5.7939617693     2.5870014854     7.1923036972
          8
Energy: -26.86174736163025 Kcal/mole
 H     -3.9371281489     2.9422118561     5.0314172054
 F     -3.7405222216     3.3265404005     5.8404454369
 H     -5.4218495203     1.7555478809     4.1277439600
 F     -4.6523461435     2.1043934793     3.7712887714
 H     -6.4962686670     1.7239723946     5.9371534403
 F     -6.6853698645     1.3227760373     5.1345506618
 H     -5.0158547584     2.9176681943     6.8372015519
 F     -5.7940111477     2.5871491150     7.1923336007
          8
Energy: -26.86145465292458 Kcal/mole
 H     -3.9395840072     2.9437186347     5.0313036322
 F     -3.7403919440     3.3264604693     5.8404514617
 H     -5.4236520180     1.7597396216     4.1279242438
 F     -4.6522505252     2.1041711172     3.7712792078
 H     -6.4935849479     1.7162890381     5.9403118058
 F     -6.6855122296     1.3231836216     5.1343831178
 H     -5.0158068566     2.9193265927     6.8388581234
 F     -5.7940136888     2.5870611408     7.1922457234
          8
Energy: -26.8600002251315 Kcal/mole
 H     -3.9416894227     2.9408094645     5.0332087777
 F     -3.7402802566     3.3266147941     5.8403503982
 H     -5.4228235955     1.7616597517     4.1315446384
 F     -4.6522944711     2.1040692587     3.7710871542
 H     -6.4947468523     1.7188062853     5.9414608337
 F     -6.6812182425     1.3204253074     5.1368429014
 H     -5.0225549297     2.9230987105     6.8432721247
 F     -5.8038279609     2.5948313850     7.1936176881
          8
Energy: -26.859897345006374 Kcal/mole
 H     -3.9430498916     2.9445140347     5.0317889895
 F     -3.7402080869     3.3264182752     5.8404257147
 H     -5.4182453061     1.7560753567     4.1359224316
 F     -4.6525373387     2.1043654980     3.7708549224
 H     -6.4975761290     1.7225492669     5.9402479358
 F     -6.6810681559     1.3202267509     5.1369072428
 H     -5.0257153185     2.9318186525     6.8445265105
 F     -5.8036603096     2.5943688122     7.1935511458
          8
Energy: -26.86045247647121 Kcal/mole
 H     -3.9386221363     2.9468992867     5.0295714739
 F     -3.7404429691     3.3262917431     5.8405433487
 H     -5.4175824521     1.7491711500     4.1306158207
 F     -4.6525725016     2.1047317502     3.7711364259
 H     -6.4940197208     1.7269158542     5.9372219859
 F     -6.6812568152     1.3199951135     5.1370677624
 H     -5.0240102788     2.9266959250     6.8434198729
 F     -5.8037507580     2.5946405611     7.1936098504
          8
Energy: -26.86024555544884 Kcal/mole
 H     -3.9348512915     2.9411144078     5.0313893957
 F     -3.7406430037     3.3265986175     5.8404469122
 H     -5.4183654933     1.7492459551     4.1290187743
 F     -4.6525309631     2.1047277819     3.7712211455
 H     -6.4972347354     1.7273428932     5.9377500264
 F     -6.6810862661     1.3199724601     5.1370397511
 H     -5.0232863383     2.9248469449     6.8432845395
 F     -5.8037891614     2.5947386452     7.1936170295
          8
Energy: -26.860539092700236 Kcal/mole
 H     -3.9455473982     2.9442452729     5.0297683521
 F     -3.7452427491     3.3271828200     5.8385488431
 H     -5.4226605976     1.7602536089     4.1305529683
 F     -4.6523031177     2.1041438513     3.7711397600
 H     -6.4935080674     1.7207158913     5.9402238711
 F     -6.6812839572     1.3203240072     5.1369085194
 H     -5.0265394445     2.9316495464     6.8425331704
 F     -5.8036165916     2.5943777829     7.1936568879
          8
Energy: -26.86143021096376 Kcal/mole
 H     -3.9433082119     2.9380452581     5.0321814229
 F     -3.7453615327     3.3275117164     5.8384208353
 H     -5.4201110795     1.7555374159     4.1314617251
 F     -4.6524383638     2.1043940345     3.7710915526
 H     -6.4956377759     1.7240804774     5.9390333799
 F     -6.6811709811     1.3201455237     5.1369716722
 H     -5.0268987367     2.9311882304     6.8412977002
 F     -5.8035975320     2.5944022546     7.1937224268
          8
Energy: -26.86095304296211 Kcal/mole
 H     -3.9446907312     2.9407128825     5.0312386956
 F     -3.7452881933     3.3273702051     5.8384708448
 H     -5.4179414250     1.7536330570     4.1342168136
 F     -4.6525534589     2.1044950563     3.7709454015
 H     -6.4947076228     1.7198124944     5.9409527173
 F     -6.6812203236     1.3203719304     5.1368698558
 H     -5.0262223334     2.9318796676     6.8434575279
 F     -5.8036334136     2.5943655755     7.1936078529
          8
Energy: -26.86038207390945 Kcal/mole
 H     -3.9454429084     2.9432819800     5.0301993014
 F     -3.7452482920     3.3272339204     5.8385259822
 H     -5.4202953702     1.7548535399     4.1304047508
 F     -4.6524285876     2.1044303125     3.7711476226
 H     -6.4883996474     1.7253674585     5.9420072078
 F     -6.6792828817     1.3159421468     5.1439949867
 H     -5.0230610455     2.9225325346     6.8416179657
 F     -5.8038011126     2.5948614193     7.1937054374
          8
Energy: -26.861553808193094 Kcal/mole
 H     -3.9435939169     2.9349327922     5.0337631073