          8
Energy: -26.85971076995915 Kcal/mole
 H     -6.3422987651    -1.7006554801    -5.4890978872
 F     -5.6055483693    -1.5995672531    -6.0256321589
 H     -6.8608965956    -1.7887415070    -3.4530039120
 F     -7.3931793062    -1.8375676963    -4.1981080116
 H     -4.8553735411    -1.4790640178    -2.9223458389
 F     -5.5824355599    -1.6445114177    -2.3885884233
 H     -4.3440644952    -1.3342792346    -4.9636402386
 F     -3.8217781127    -1.2211465042    -4.2184510545
