          8
Energy: -26.862717892464076 Kcal/mole
 H     -3.9384286365     2.9423901670     5.0132260375
 F     -3.7353932923     3.3398235673     5.8142955360
 H     -5.4390111643     1.7671420396     4.1251231110
 F     -4.6574010141     2.0889455881     3.7695713577
 H     -6.5146375889     1.7651286153     5.9339824553
 F     -6.7233735024     1.3818759692     5.1274864989
 H     -5.0045968522     2.9313957624     6.8297119432
 F     -5.7784749329     2.5963184899     7.1898854261
