          8
Energy: -26.855092520188464 Kcal/mole
 H     -3.8871027452     2.6484469929     5.0510894855
 F     -3.6206692255     2.9585853309     5.8718917704
 H     -5.5128296627     1.6876479784     4.1305649305
 F     -4.7157638727     1.9714599372     3.7769749157
 H     -6.5622028630     1.7244255149     5.9439013479
 F     -6.7998498722     1.3553797679     5.1387813968
 H     -4.9416918011     2.7001908508     6.8602620854
 F     -5.7605673996     2.4742524835     7.2056366767
          8
Energy: -26.85457334320165 Kcal/mole
 H     -3.8720195982     2.6591601620     5.0463439040
 F     -3.6318339577     3.0045669966     5.8611407969
 H     -5.4818704705     1.6730913938     4.1219005416
 F     -4.6842639674     1.9467046721     3.7615553735
 H     -6.5268197831     1.6947889351     5.9549217021
 F     -6.7701052944     1.3389850623     5.1455362784
 H     -4.9226950321     2.6849567355     6.8693199232
 F     -5.7282545090     2.4255024297     7.2223728829
          8
Energy: -26.85200993423942 Kcal/mole
 H     -3.8713469059     2.7211756928     5.0635511352
 F     -3.6112352794     3.0217260513     5.8899290292
 H     -5.4990873539     1.7758528804     4.0990562788
 F     -4.6908145486     2.0491371530     3.7630506558
 H     -6.5202105507     1.7364062373     5.9570608877
 F     -6.7973564480     1.4551763398     5.1294203278
 H     -4.8840855053     2.6421953029     6.8991890225
 F     -5.6800715625     2.3578260214     7.2547580149
          8
Energy: -26.854584344551967 Kcal/mole
 H     -3.8656055293     2.7302223994     5.0744102075
 F     -3.6113219315     3.0512463790     5.8948810824
 H     -5.4853170396     1.7535416786     4.1438112373
 F     -4.6787224919     2.0199952867     3.7984176786
 H     -6.5381572753     1.7413755821     5.9597534361
 F     -6.7930339911     1.4359450166     5.1335337139
 H     -4.8898551334     2.6788252776     6.8980075898
 F     -5.6831410497     2.3802771832     7.2479439989
          8
Energy: -26.833456672853885 Kcal/mole
 H     -3.8605436908     2.7369182305     5.0702777315
 F     -3.6115904503     3.0508911806     5.8951003007
 H     -5.4876245813     1.7646092868     4.1467525197
 F     -4.6786000821     2.0194081757     3.7982616504
 H     -6.5185477573     1.6828893942     5.9483884278
 F     -6.7995641968     1.4206790263     5.1158234251
 H     -4.8944494669     2.6453425276     6.8783812304
 F     -5.6748775297     2.3172121077     7.2307325697
          8
Energy: -26.849519893642537 Kcal/mole
 H     -3.8450855779     2.6905051552     5.0906403523
 F     -3.5996554828     3.0224312264     5.9094676550
 H     -5.4667233307     1.7114597734     4.1357964330
 F     -4.6465482877     1.9696017644     3.8171044009
 H     -6.5430953535     1.7193958043     5.9439401475
 F     -6.7982620035     1.4187424456     5.1160593961
 H     -4.8990289298     2.6554311152     6.8973546771
 F     -5.6972426377     2.3587673974     7.2375524357
          8
Energy: -26.84468761438012 Kcal/mole
 H     -3.9048109016     2.7616727734     5.0133241766
 F     -3.6829177647     3.1240896620     5.8259165926
 H     -5.4787970502     1.6587459919     4.1126423300
 F     -4.6717877289     1.9298657739     3.7718799213
 H     -6.5152550915     1.6640748082     5.9407303765
 F     -6.7771662512     1.3599876064     5.1162168726
 H     -4.9179432616     2.6655139327     6.8527452286
 F     -5.6876018122     2.3321270692     7.2233770064
          8
Energy: -26.85584366412425 Kcal/mole
 H     -3.9075469717     2.7410267883     5.0160311726
 F     -3.6565100032     3.0774162563     5.8313296248
 H     -5.4900949962     1.6996917612     4.1110366420
 F     -4.7070901633     2.0112166142     3.7494502795
 H     -6.5084111532     1.6062482344     5.9470295250
 F     -6.7601565241     1.3026828850     5.1191639883
 H     -4.9056106329     2.6280890607     6.8539715856
 F     -5.6760319028     2.2970587155     7.2251305509
          8
Energy: -26.84334268269197 Kcal/mole
 H     -3.9432936414     2.8306690076     5.0074800580
 F     -3.6655010993     3.0978312001     5.8395525707
 H     -5.5747211167     1.8551709777     4.0957249239
 F     -4.8247246974     2.2249516167     3.7193519041
 H     -6.5030166748     1.6213477498     5.9673716469
 F     -6.7518410105     1.3080785713     5.1422426438
 H     -4.8980950699     2.6386967082     6.8707185832
 F     -5.6714740623     2.3081075587     7.2360742297
          8
Energy: -26.850974326989615 Kcal/mole
 H     -3.9524840788     2.8121750467     4.9978327664
 F     -3.6682593968     3.0863174420     5.8254505992
 H     -5.5478591699     1.8052843429     4.0859524594
 F     -4.7921674359     2.1652366891     3.7114483720
 H     -6.4835034982     1.6502233408     5.9676069227
 F     -6.7445115785     1.3083870855     5.1577231307
 H     -4.9160655983     2.6962184450     6.8709846992
 F     -5.7008303905     2.3966902699     7.2388380576
          8
Energy: -26.851833893376067 Kcal/mole
 H     -3.9579129339     2.8051891279     5.0020724397
 F     -3.6679714085     3.0866880289     5.8252256943
 H     -5.5520426802     1.7885338237     4.1069245378
 F     -4.8144313392     2.1682454444     3.7162359218
 H     -6.4685910098     1.6208554453     5.9992739588
 F     -6.7179658829     1.2670611589     5.1908614554
 H     -4.9152108199     2.7077345027     6.8859178153
 F     -5.7003587186     2.4077020038     7.2525406142
          8
Energy: -26.84654280133242 Kcal/mole
 H     -3.9777841069     2.9220040932     4.9855550095
 F     -3.7091776552     3.2565629084     5.7959931461
 H     -5.5349689950     1.7746027780     4.1621292587
 F     -4.8186728870     2.1682519767     3.7463778979
 H     -6.4733210270     1.6547603675     6.0185681482
 F     -6.6999653116     1.2580343479     5.2235022178
 H     -4.9564258285     2.8722514200     6.8516873791
 F     -5.7282963386     2.5518494886     7.2291095804
          8
Energy: -26.845916608951114 Kcal/mole
 H     -3.9679536840     2.9063000889     4.9906314265
 F     -3.7152546523     3.2670895210     5.7949094786
 H     -5.5131393972     1.7572387043     4.1162239515
 F     -4.7676407332     2.1232080028     3.7273959503
 H     -6.4826569598     1.6986769602     5.9931646050
 F     -6.7085116787     1.2858476893     5.2061127395
 H     -4.9796989599     2.9027456606     6.8260564749
 F     -5.7516000891     2.5837787007     7.2046297509
          8
Energy: -26.85418048941574 Kcal/mole
 H     -3.9790468041     2.9305792182     4.9614853371
 F     -3.7688776300     3.3527231306     5.7479409528
 H     -5.4864569266     1.7298332828     4.1459175958
 F     -4.7090387265     2.0277547830     3.7615314333
 H     -6.5098261435     1.7548611328     5.9821320765
 F     -6.7488356171     1.3714117710     5.1841784072
 H     -5.0012964294     2.9524893003     6.8010538955
 F     -5.7512087913     2.6059998623     7.1991311730
          8
Energy: -26.856813474498495 Kcal/mole
 H     -3.9990284943     2.9727459819     4.9560732165
 F     -3.8005422850     3.4131375773     5.7355265297
 H     -5.4660154831     1.6821789414     4.1466416329
 F     -4.7101230978     2.0302827357     3.7614930249
 H     -6.4778699208     1.6813315535     6.0050408574
 F     -6.6953843357     1.2703974657     5.2146550942
 H     -5.0091979941     2.9677908990     6.7998813550
 F     -5.7507896315     2.6051881478     7.1991933736
          8
Energy: -26.85133136870519 Kcal/mole
 H     -4.0057984791     2.9372740969     4.9587371946
 F     -3.7970408539     3.3730418172     5.7381060084
 H     -5.4824936712     1.6846916840     4.1470542567
 F     -4.7227517464     2.0210094424     3.7590187259
 H     -6.4931612968     1.7285146543     5.9929495791
 F     -6.7110787005     1.3078367517     5.2078183114
 H     -5.0068366522     2.9599917125     6.7972810526
 F     -5.7509148953     2.6056018766     7.1993313136
          8
Energy: -26.849402556068526 Kcal/mole
 H     -4.0238025058     2.9551629727     4.9346862962
 F     -3.8193475940     3.4064417893     5.7063303973
 H     -5.4530682192     1.6427482384     4.1557695557
 F     -4.6955323227     1.9748179257     3.7598426831
 H     -6.4749138847     1.6954602891     5.9989250672
 F     -6.6840052471     1.2596221940     5.2196850805
 H     -5.0181781652     2.9889087293     6.7986874279
 F     -5.7568808531     2.6282226681     7.2050282997
          8
Energy: -26.846481494571975 Kcal/mole
 H     -4.0093710038     2.9728594869     4.9380661002
 F     -3.8441116187     3.4564515593     5.6994576178
 H     -5.4221903291     1.6470947555     4.1660121056
 F     -4.6625217493     1.9761331036     3.7716437318
 H     -6.4662062926     1.7325410861     5.9957590386
 F     -6.6875562049     1.3051199539     5.2152435730
 H     -5.0296091901     3.0130420562     6.7870564560
 F     -5.7560351967     2.6317809303     7.1967321947
          8
Energy: -26.85517983245603 Kcal/mole
 H     -3.9918948780     2.9685147927     4.9479675729
 F     -3.8035470553     3.4233951886     5.7215940480
 H     -5.4188301872     1.6282286450     4.1561230766
 F     -4.6626999970     1.9771339071     3.7721683220
 H     -6.4891355327     1.7090335311     5.9800849196
 F     -6.6743028606     1.2468151520     5.2100484070
 H     -5.0530758738     3.0305799591     6.7611158866
 F     -5.8160050272     2.6955397335     7.1439685399
          8
Energy: -26.841386732115865 Kcal/mole
 H     -3.9601777358     2.9183227359     4.9499800954
 F     -3.8011851174     3.4077020868     5.7090045998
 H     -5.3741088351     1.5738566284     4.1712751410
 F     -4.5942685244     1.8827155705     3.8006752978
 H     -6.5158402278     1.6943265756     5.9562942688
 F     -6.6972170949     1.2721243844     5.1627347299
 H     -5.0350710762     2.9789962236     6.7686891408
 F     -5.7818320238     2.6176541828     7.1594179682
          8
Energy: -26.85109931129466 Kcal/mole
 H     -3.9606007544     2.9276468802     4.9722751510
 F     -3.7907442513     3.3988877603     5.7403700678
 H     -5.4171621571     1.6224734789     4.1498798085
 F     -4.6390944054     1.9478644402     3.7898516206
 H     -6.4848077811     1.6876658360     5.9520649507
 F     -6.6988632945     1.2724777213     5.1629590855
 H     -5.0180204801     2.9398459949     6.7827473034
 F     -5.7655338424     2.5796639183     7.1731082195
          8
Energy: -26.849775812053906 Kcal/mole
 H     -3.9883718281     2.9670466271     4.9560782243
 F     -3.8027003789     3.4001898771     5.7427179372
 H     -5.4487952406     1.7003725222     4.1007134996
 F     -4.6747238892     2.0339757133     3.7395882391
 H     -6.4686281019     1.6994387618     5.9386479652
 F     -6.6965279985     1.3074202524     5.1416083643
 H     -5.0071812690     2.9256635102     6.7841764597
 F     -5.7445241579     2.5469488089     7.1763366812
          8
Energy: -26.854215448116037 Kcal/mole
 H     -3.9789626535     2.9217302997     4.9563693820
 F     -3.7985296613     3.3893120494     5.7242888067
 H     -5.4333005403     1.6531787498     4.1362650720
 F     -4.6451209842     1.9545537151     3.7773289806
 H     -6.5192815011     1.7213990822     5.9360116986
 F     -6.7328708292     1.3261790286     5.1365933424
 H     -5.0249432905     2.9573548421     6.7726567994
 F     -5.7661668493     2.5855785646     7.1641399222
          8
Energy: -26.850326099502325 Kcal/mole
 H     -3.9512191033     2.8960870496     4.9794854404
 F     -3.7494879168     3.3331679748     5.7599684916
 H     -5.4310301357     1.6571417797     4.1549806873
 F     -4.6492303423     1.9572192003     3.7813075351
 H     -6.5200151470     1.7345061560     5.9295870902
 F     -6.7328319109     1.3254837286     5.1369341530
 H     -5.0074871028     2.9259888255     6.7858378905
 F     -5.7769502392     2.5882463337     7.1529148455
          8
Energy: -26.858020486486055 Kcal/mole
 H     -3.9397548923     2.8902181756     4.9799209647
 F     -3.7500960667     3.3334793050     5.7599453881
 H     -5.4393036223     1.6578074591     4.1376869701
 F     -4.6487914529     1.9571838876     3.7822249268
 H     -6.5111347353     1.7274184593     5.9307735017
 F     -6.7333029963     1.3258597145     5.1368712166
 H     -5.0051462616     2.9321547863     6.7837639224
 F     -5.7733312971     2.5951559274     7.1541860065
          8
Energy: -26.853767491825295 Kcal/mole
 H     -3.9429319456     2.8808148339     4.9723086899
 F     -3.7587865904     3.3372443866     5.7460344498
 H     -5.4248521850     1.6348093294     4.1431393818
 F     -4.6367726440     1.9372923085     3.7849164282
 H     -6.5003266949     1.7194999929     5.9481570608
 F     -6.7079020982     1.2934571431     5.1631163344
 H     -5.0072546771     2.9323604174     6.7725335317
 F     -5.7685878562     2.6026415625     7.1631052500
          8
Energy: -26.857360585812103 Kcal/mole
 H     -3.9331405028     2.8621428207     4.9837697207
 F     -3.7303690244     3.2974765383     5.7649593788
 H     -5.4141753567     1.6211794471     4.1544890811
 F     -4.6373390250     1.9380153422     3.7843143529
 H     -6.5027024188     1.7183669334     5.9475645006
 F     -6.6978310424     1.2816040640     5.1652269672
 H     -5.0148841468     2.9470181581     6.7874500794
 F     -5.7896325877     2.6321466390     7.1636279360
          8
Energy: -26.857088275650057 Kcal/mole
 H     -3.9379631484     2.8759845600     4.9850669541
 F     -3.7294153790     3.3035978508     5.7689953317
 H     -5.4440532886     1.6648368628     4.1406824018
 F     -4.6592687033     1.9702315512     3.7777275301
 H     -6.5086291573     1.7301237265     5.9351439608
 F     -6.7256324838     1.3063606534     5.1514198932
 H     -5.0044630131     2.9342756766     6.7802600725
 F     -5.7787589563     2.6142061838     7.1529668100
          8
Energy: -26.846388858417043 Kcal/mole
 H     -3.9278118047     2.8995342733     4.9965335870
 F     -3.7438863591     3.3415280415     5.7786473507
 H     -5.4427860422     1.6748017511     4.1476642745
 F     -4.6578318121     1.9811077759     3.7858459834
 H     -6.5339477391     1.7537387743     5.9139089812
 F     -6.7391802526     1.3371937313     5.1231758767
 H     -5.0284616632     2.9638826085     6.7727818971
 F     -5.8065325544     2.6473895684     7.1406498678
          8
Energy: -26.85157950674099 Kcal/mole
 H     -3.9401710792     2.9148332303     5.0013835488
 F     -3.7508801212     3.3470644895     5.7876621710
 H     -5.4448666759     1.7135696282     4.1297093970
 F     -4.6514593537     2.0165129448     3.7838493558
 H     -6.5260283092     1.7830169220     5.9178832900
 F     -6.7417408796     1.3656831949     5.1303620856
 H     -5.0290499050     2.9733471693     6.7798813433
 F     -5.8065013495     2.6468874953     7.1402732586
          8
Energy: -26.852785168447582 Kcal/mole
 H     -3.9371899699     2.9147678207     4.9977859117
 F     -3.7395629495     3.3437813806     5.7837756866
 H     -5.4184394830     1.6701297144     4.1478473455
 F     -4.6528612552     2.0188173318     3.7828871796
 H     -6.5144862784     1.7203313867     5.9326032333
 F     -6.6989565505     1.2779913121     5.1508136343
 H     -5.0415025539     2.9824130242     6.7817725508
 F     -5.8227307394     2.6527377503     7.1308939280
          8
Energy: -26.85523202238062 Kcal/mole
 H     -3.9316809969     2.8956452862     5.0068126256
 F     -3.7339119302     3.3210865963     5.7947060753
 H     -5.4333278333     1.6964632179     4.1403745759
 F     -4.6520714626     2.0174204003     3.7832835927
 H     -6.5273812785     1.7582929516     5.9269334634
 F     -6.7293727788     1.3277436650     5.1428953613
 H     -5.0374216843     2.9776298691     6.7756485536
 F     -5.8225407917     2.6666193788     7.1330691212
          8
Energy: -26.847766447600947 Kcal/mole
 H     -3.9540382769     2.9543492430     4.9885688574
 F     -3.7683426018     3.3872312399     5.7753466488
 H     -5.4245887591     1.6770329817     4.1413594253
 F     -4.6525350503     2.0184511295     3.7832313487
 H     -6.5095318948     1.7314716451     5.9271832319
 F     -6.7073674046     1.2840856378     5.1515571161
 H     -5.0383901258     2.9844671373     6.7795635444
 F     -5.8224894181     2.6662566775     7.1328614399
          8
Energy: -26.848200004637107 Kcal/mole
 H     -3.9475714498     2.9541379843     4.9871880797
 F     -3.7686856520     3.3872424466     5.7754198959
 H     -5.4282005301     1.7011796987     4.1439137999
 F     -4.6569953441     2.0414120017     3.7828410357
 H     -6.5225985272     1.7486246871     5.9231012333
 F     -6.7035171033     1.3111743006     5.1377384967
 H     -5.0540508853     3.0206408794     6.7664214233
 F     -5.8291853618     2.6867426994     7.1249845958
          8
Energy: -26.857100683126106 Kcal/mole
 H     -3.9558293346     2.9618298358     4.9757621476
 F     -3.7874283747     3.4124442971     5.7564520502
 H     -5.3957702247     1.6829280015     4.1366088552
 F     -4.6209111392     2.0133751815     3.7742732942
 H     -6.4937136621     1.7286617715     5.9194311022
 F     -6.6726795725     1.2897560415     5.1344330366
 H     -5.0689865329     3.0255092045     6.7580801906
 F     -5.8294893826     2.6738396272     7.1307099317
          8
Energy: -26.85698006199101 Kcal/mole
 H     -3.9518827751     2.9540869249     4.9999014254
 F     -3.7728258778     3.3986516843     5.7816877148
 H     -5.4018054365     1.6770317854     4.1323202221
 F     -4.6215867001     2.0127337243     3.7867020346
 H     -6.5064866264     1.7452144362     5.9229404442
 F     -6.6905260069     1.3033604015     5.1407745293
 H     -5.0538669477     3.0069032743     6.7724838173
 F     -5.8302914416     2.6748266288     7.1299458526
          8
Energy: -26.849011749085946 Kcal/mole
 H     -3.9479091211     2.9615682608     4.9948028737
 F     -3.7730366710     3.3982548167     5.7819581812
 H     -5.3897792851     1.6804041138     4.1612331564
 F     -4.6222246596     2.0125548301     3.7851682703
 H     -6.5009302907     1.7358289213     5.9389130174
 F     -6.6857459736     1.3126419936     5.1466725314
 H     -5.0326129134     2.9800901120     6.7921127851
 F     -5.8030218533     2.6494830582     7.1636744104
          8
Energy: -26.855145592916614 Kcal/mole
 H     -3.9224426796     2.9345573478     5.0129635028
 F     -3.7454185662     3.3734129313     5.7984297593
 H     -5.3983439430     1.6837252097     4.1455914377
 F     -4.6085051310     1.9952932048     3.7992259726
 H     -6.4923579402     1.7353369755     5.9371248957
 F     -6.6862007170     1.3126680902     5.1467673871
 H     -5.0219242248     2.9672263130     6.7931509187
 F     -5.7940665294     2.6371542439     7.1615768822
          8
Energy: -26.861462517605588 Kcal/mole
 H     -3.9272254554     2.9416537074     5.0101310106
 F     -3.7451648510     3.3730364858     5.7985800165
 H     -5.3972190920     1.6866073115     4.1515927001
 F     -4.6216141160     2.0188278830     3.7924890757
 H     -6.4957206741     1.7305608885     5.9423102637
 F     -6.6862464352     1.3055244943     5.1524159683
 H     -5.0220485783     2.9749798380     6.7999894372
 F     -5.7940599327     2.6367429373     7.1612141146
          8
Energy: -26.85249487412733 Kcal/mole
 H     -3.9158801385     2.9274810247     5.0206831238
 F     -3.7344322775     3.3450774513     5.8166598183
 H     -5.4076019871     1.7116665752     4.1356413113
 F     -4.6194916593     2.0206029620     3.7830375391
 H     -6.5062950849     1.7560981954     5.9254121878
 F     -6.7071082252     1.3461091535     5.1301310625
 H     -5.0118250776     2.9602413920     6.8086160918
 F     -5.7946022658     2.6375247778     7.1607564906
          8
Energy: -26.856335275057262 Kcal/mole
 H     -3.9256166643     2.9145382957     5.0299228090
 F     -3.7339157773     3.3457640332     5.8161696744
 H     -5.4034619732     1.6978067410     4.1519657019
 F     -4.6172523934     2.0129037653     3.8005722446
 H     -6.5195880535     1.7501423841     5.9341280523
 F     -6.7130461098     1.3352979983     5.1395419235
 H     -5.0203680906     2.9663408185     6.8122478369
 F     -5.8038980739     2.6468499694     7.1656532169
          8
Energy: -26.857961314744898 Kcal/mole
 H     -3.9077162525     2.8998552785     5.0381283558
 F     -3.7185083446     3.3239729166     5.8288328497
 H     -5.4052010064     1.7012456462     4.1593282442
 F     -4.6081052931     1.9977436154     3.8163758013
 H     -6.5217509298     1.7572380994     5.9352338013
 F     -6.7306586876     1.3737089544     5.1289138005
 H     -4.9979611161     2.9294622090     6.8275872527
 F     -5.7726534850     2.5957951974     7.1873191792
          8
Energy: -26.851377071848276 Kcal/mole
 H     -3.9074523932     2.9004372900     5.0377534033
 F     -3.7185223418     3.3239420423     5.8288527400
 H     -5.4011821943     1.7103005863     4.1606298951
 F     -4.5963924490     1.9860757298     3.8183572902
 H     -6.5198278308     1.7625018931     5.9355727543
 F     -6.7242431084     1.3854302488     5.1250665116
 H     -5.0095381561     2.9302635714     6.8241585379
 F     -5.7836974495     2.5941668316     7.1827744465
          8
Energy: -26.857088550424265 Kcal/mole
 H     -3.9162240303     2.8959415367     5.0370948016
 F     -3.7192457934     3.3068415880     5.8328646943
 H     -5.4191516008     1.7237834509     4.1490721311
 F     -4.6263295779     2.0227445658     3.7984377178
 H     -6.5298526857     1.7854567143     5.9269661174
 F     -6.7237113130     1.3842125486     5.1255230738
 H     -5.0072856988     2.9453022152     6.8182342598
 F     -5.7931202794     2.6323540359     7.1723761084
          8
Energy: -26.849726855501245 Kcal/mole
 H     -3.9228581646     2.9232426313     5.0250790914
 F     -3.7286715084     3.3613945462     5.8068741042
 H     -5.4304041757     1.7336083800     4.1373626283
 F     -4.6332698263     2.0335609971     3.7975181690
 H     -6.5214506283     1.7826585289     5.9262828575
 F     -6.7241570227     1.3843609858     5.1255593192
 H     -5.0162629238     2.9681117610     6.8140102459
 F     -5.7900716022     2.6282929554     7.1698645823
          8
Energy: -26.854691838308895 Kcal/mole
 H     -3.9275909949     2.9588457157     5.0097117777
 F     -3.7346329459     3.3569406849     5.8129406285
 H     -5.4311801189     1.7476548426     4.1310745730
 F     -4.6494905064     2.0703874738     3.7765410790
 H     -6.5258407545     1.7892378288     5.9240772107
 F     -6.7239241367     1.3840119692     5.1256763237
 H     -5.0094823305     2.9518836370     6.8137156723
 F     -5.7904312970     2.6291538199     7.1698802087
          8
Energy: -26.859712361790827 Kcal/mole
 H     -3.9465859227     2.9627834473     5.0107260298
 F     -3.7440170646     3.3628485527     5.8106027510
 H     -5.4468928845     1.7767877323     4.1157907156
 F     -4.6662640226     2.1045974459     3.7635857021
 H     -6.5183579134     1.7776050693     5.9279886313
 F     -6.7243210841     1.3846290602     5.1254688318
 H     -5.0102909383     2.9565172212     6.8161829826
 F     -5.7903884022     2.6289080190     7.1697493236
          8
Energy: -26.853254532234416 Kcal/mole
 H     -3.9548081176     2.9733247766     5.0076598015
 F     -3.7435808962     3.3622893595     5.8107654073
 H     -5.4466731947     1.7714890644     4.1245624917
 F     -4.6653341015     2.0959814312     3.7708635727
 H     -6.5058651154     1.7635794136     5.9271655111
 F     -6.7253229684     1.3724138390     5.1273425657
 H     -5.0062650896     2.9368529711     6.8184589156
 F     -5.7845533221     2.6057632235     7.1727695227
          8
Energy: -26.859046202070488 Kcal/mole
 H     -3.9506759056     2.9637415331     5.0112944518
 F     -3.7438001005     3.3627977284     5.8105725975
 H     -5.4425039440     1.7603094204     4.1233017949
 F     -4.6655552706     2.0965744855     3.7709304498
 H     -6.5147463846     1.7630408295     5.9298090673
 F     -6.7248518376     1.3724424096     5.1272023311
 H     -5.0080115246     2.9479664734     6.8286144694
 F     -5.7790847813     2.6021017347     7.1845816243
          8
Energy: -26.858687387190116 Kcal/mole
 H     -3.9463802778     2.9673703816     5.0083972037
 F     -3.7440279736     3.3626052264     5.8107262899
 H     -5.4411350628     1.7663578595     4.1319235003
 F     -4.6656278866     2.0962536298     3.7704730882
 H     -6.5200096547     1.7741323548     5.9256789855
 F     -6.7245726333     1.3718540298     5.1274214224
 H     -5.0116058434     2.9509918825     6.8102109735
 F     -5.7890729906     2.6240190197     7.1701034324
          8
Energy: -26.85987851927166 Kcal/mole
 H     -3.9396189783     2.9549281588     5.0129664121
 F     -3.7443866449     3.3632652576     5.8104839039
 H     -5.4437224684     1.7648133511     4.1248768801
 F     -4.6654906307     2.0963355624     3.7708468951
 H     -6.5202227293     1.7703167362     5.9276442719
 F     -6.7245613302     1.3720564396     5.1273171685
 H     -5.0139992835     2.9545415261     6.8082976075
 F     -5.7889460241     2.6238307193     7.1702049321
          8
Energy: -26.85647726212531 Kcal/mole
 H     -3.9430953106     2.9700431648     5.0101204835
 F     -3.7429161436     3.3768040572     5.8072170131
 H     -5.4527837055     1.7897485006     4.1272530537
 F     -4.6650099530     2.0950128103     3.7707208446
 H     -6.5250927734     1.7995170905     5.9204659584
 F     -6.7359359021     1.4138211199     5.1156847501
 H     -5.0127197350     2.9618040093     6.8178868361
 F     -5.7890139012     2.6234454614     7.1696962457
          8
Energy: -26.859034563028928 Kcal/mole
 H     -3.9439483431     2.9660429018     5.0123905118
 F     -3.7428708922     3.3770162619     5.8070965933
 H     -5.4501579358     1.7839594061     4.1347397182
 F     -4.6625697519     2.0908329002     3.7791802841
 H     -6.5353771045     1.8063262470     5.9207147293
 F     -6.7498763099     1.4235992763     5.1154823673
 H     -5.0157614208     2.9645928354     6.8139065228
 F     -5.7888525468     2.6232975206     7.1699073921
          8
Energy: -26.857857002217457 Kcal/mole
 H     -3.9452579236     2.9714779849     5.0099358707
 F     -3.7428014220     3.3767279433     5.8072268064
 H     -5.4559921693     1.7886028871     4.1256186248
 F     -4.6622602592     2.0905865743     3.7796641370
 H     -6.5280471983     1.7887934060     5.9268349102
 F     -6.7502651445     1.4245293530     5.1151577059
 H     -5.0035196821     2.9445865869     6.8237081523
 F     -5.7736466465     2.5976034936     7.1806341833
          8
Energy: -26.853972820135937 Kcal/mole
 H     -3.9463316109     2.9705455138     5.0106841778
 F     -3.7427444654     3.3767774088     5.8071871104
 H     -5.4595658986     1.7909050530     4.1193414167
 F     -4.6620706812     2.0904644497     3.7799971284
 H     -6.5281997143     1.8018409742     5.9208877953
 F     -6.7502570539     1.4238372097     5.1154731866
 H     -4.9956201844     2.9373986538     6.8239901362
 F     -5.7688243056     2.5997538433     7.1832120298
          8
Energy: -26.855812230939932 Kcal/mole
 H     -3.9383028445     2.9705588083     5.0086705268
 F     -3.7431703729     3.3767767035     5.8072939300
 H     -5.4522503213     1.7877659024     4.1333594635
 F     -4.6624587556     2.0906309744     3.7792535034
 H     -6.5209974101     1.7755145099     5.9307077899
 F     -6.7506391195     1.4252337678     5.1149522586
 H     -4.9935345964     2.9196814482     6.8300853756
 F     -5.7564887484     2.5666797695     7.1963909540
          8
Energy: -26.858657135543922 Kcal/mole
 H     -3.9471700199     2.9597213156     5.0126968967
 F     -3.7414235790     3.3615404276     5.8108815892
 H     -5.4395907239     1.7657862126     4.1238556822
 F     -4.6571652506     2.0903062582     3.7725920793
 H     -6.5041519285     1.7732033825     5.9321162427
 F     -6.7279325287     1.3980631653     5.1258401979
 H     -4.9910978715     2.9182752970     6.8338372008
 F     -5.7566180110     2.5667543626     7.1961919283
          8
Energy: -26.860242586137787 Kcal/mole
 H     -3.9377741945     2.9579153624     5.0112458754
 F     -3.7419220059     3.3616362293     5.8109585625
 H     -5.4437825980     1.7758857836     4.1236698043
 F     -4.6569428814     2.0897704992     3.7726019397
 H     -6.5045659518     1.7623075324     5.9372061648
 F     -6.7279105657     1.3986411649     5.1255701893
 H     -4.9961763204     2.9223067379     6.8271454031
 F     -5.7563486110     2.5665405039     7.1965469127
          8
Energy: -26.858255200482887 Kcal/mole
 H     -3.9466378760     2.9638374237     5.0105021519
 F     -3.7414518080     3.3613220776     5.8109980153
 H     -5.4434525072     1.7768290857     4.1252477891
 F     -4.6569603919     2.0897204592     3.7725182312
 H     -6.5074847092     1.7642653601     5.9371240902
 F     -6.7277557324     1.3985373067     5.1255745432
 H     -4.9942624016     2.9270516744     6.8357977682
 F     -5.7564501400     2.5662887960     7.1960879248
          8
Energy: -26.860457237976448 Kcal/mole
 H     -3.9374416047     2.9529555140     5.0136885128
 F     -3.7419396490     3.3618993378     5.8108289863
 H     -5.4426515694     1.7751597945     4.1255476566
 F     -4.6570028798     2.0898090113     3.7725023240
 H     -6.5134551132     1.7780876761     5.9323536508
 F     -6.7274390163     1.3978040648     5.1258276040
 H     -5.0045221136     2.9385102568     6.8281369054
 F     -5.7725959157     2.5897115246     7.1877075923
          8
Energy: -26.85999737714161 Kcal/mole
 H     -3.9413189047     2.9584979674     5.0118285881
 F     -3.7417339672     3.3616053234     5.8109276510
 H     -5.4413400983     1.7744786743     4.1278479440
 F     -4.6570724503     2.0898451431     3.7723802990
 H     -6.5106491540     1.7746366090     5.9332229840
 F     -6.7275878659     1.3979871359     5.1257814879
 H     -5.0033914711     2.9283564872     6.8209313383
 F     -5.7726558937     2.5902501586     7.1880898310
          8
Energy: -26.86008235910154 Kcal/mole
 H     -3.9351069794     2.9430388742     5.0122407230