          8
Energy: -23.342839391298327 Kcal/mole
 H     -2.0948200382    -6.6595329027    -6.3500639554
 F     -2.7990524067    -6.2501394177    -6.7711847762
 H     -0.2464421775    -5.3839282367    -5.5042870731
 F     -0.6330903570    -6.1901301465    -5.3007418304
 H     -0.6297247865    -3.6493047246    -6.5638183928
 F      0.2345502892    -3.8958879748    -6.3818450588
 H     -2.7998950027    -4.5423694055    -6.2661593314
 F     -2.4068356147    -3.7156371561    -6.3200769101
          8
Energy: -26.004744866000323 Kcal/mole
 H     -5.2384600871    -4.8601741549    -6.8614585735
 F     -6.0592615070    -4.5358480769    -7.1104297048
 H     -4.4325588079    -5.1455327262    -5.0503680964
 F     -4.0652334766    -5.4326757584    -5.8399945777
 H     -6.1583191264    -4.3167433051    -4.2155914613
 F     -5.3712163734    -4.6159711306    -3.8525198917
 H     -7.0112112887    -4.0338785237    -5.9074888486
 F     -7.4045358857    -3.7892002771    -5.1160867277
          8
Energy: -23.935822733058387 Kcal/mole
 H     -3.1839246605    -2.8533012708     0.1224278507
 F     -3.4803062772    -1.9857424629     0.1421421088
 H     -3.4050136846    -4.0645019588    -1.6998416174
 F     -3.5527713638    -4.3713488741    -0.8484300608
 H     -4.1432342417    -2.6129315816    -2.8698725543
 F     -3.5770472859    -3.2315911735    -3.2407925462
 H     -4.6043808131    -1.7301863328    -1.1252979947
 F     -5.1236303959    -1.6173719342    -1.8726545242
          8
Energy: -24.937084210329488 Kcal/mole
 H     -2.5105339987     1.0300953468     0.2295013784
 F     -1.9558578795     1.0438554360    -0.5005904396
 H     -3.9564243149    -0.0763886853     1.4606146961
 F     -3.6747319159     0.7873547905     1.5850558486
 H     -4.0612785053    -1.3531490717    -0.4169182302
 F     -4.4929144794    -1.2913557482     0.3897793408
 H     -2.6358280372    -0.1541114930    -1.3843168371
 F     -3.0209624808    -0.9236173094    -1.7012099718
          8
Energy: -25.93038856817799 Kcal/mole
 H      0.0781941885     0.2550051291     2.0425980757
 F      0.7019627514     0.2771052028     1.3707994699
 H     -1.9740800079     0.2149350765     1.9978996691
 F     -1.4056467627    -0.0774508678     2.6553820683
 H     -2.0146833594     0.4562476288    -0.0826280658
 F     -2.6389785444     0.7026461162     0.5422177610
 H     -0.0323302489     0.0963310968    -0.1528888265
 F     -0.6390596378     0.0599385834    -0.8395066486
          8
Energy: -25.63956176007781 Kcal/mole
 H     -1.1118657572     1.9136359981    -3.8647654574
 F     -1.0110464489     2.7992120594    -4.0803565212
 H     -0.3946641168     0.6745455893    -2.2151117607
 F     -0.7947191388     0.4635158305    -3.0128030671
 H     -0.1911260973     2.3409973749    -0.8397384090
 F      0.1912984007     1.5223283774    -0.6834643679
 H     -0.9643826681     3.5315892471    -2.5348193640
 F     -0.8570513711     3.7061507579    -1.6410088295
          8
Energy: -24.5181017974665 Kcal/mole
 H      1.1648099462     4.4417758490    -4.5592552845
 F      0.6275030176     5.1847790395    -4.5709396098
 H      1.9631496553     3.2626248443    -2.9428407961
 F      2.0044534106     2.9743998681    -3.8123862883
 H      0.9582794677     4.7557460434    -1.6722326425
 F      1.5608291323     4.1070580584    -1.4334297953
 H      0.0422839581     5.7426795346    -2.9881260170
 F     -0.2624666214     5.6614063562    -2.1270738962
          8
Energy: -26.155651920648296 Kcal/mole
 H      1.8812254596     1.6575020889    -1.2309604318
 F      2.7165669286     1.4915636388    -1.5708987510
 H      0.0149693900     2.6222523052    -1.8246528425
 F      0.2759305588     2.1402261930    -1.0895072137
 H      0.6658629363     3.2133767669    -3.6620822013
 F     -0.0834573090     3.5666733023    -3.2689031988
 H      2.5142989474     2.0677632098    -3.0734829091
 F      2.1438938199     2.3340797290    -3.8689479009
          8
Energy: -25.450196457009184 Kcal/mole
 H      5.8774724662    -0.5787648397     0.3484468109
 F      5.0994074008    -0.8243627582    -0.0701047587
 H      6.6129892193     0.2027429931     2.0661052463
 F      7.1144424551    -0.1749085126     1.3976645290
 H      4.5807242964     0.4316975176     3.0069190176
 F      5.4486346156     0.6245720090     3.2314632410
 H      3.8235812722    -0.4473373976     1.2137179308
 F      3.3846554150    -0.3212561631     2.0089138904
          8
Energy: -25.205078016532866 Kcal/mole
 H      4.3574629671    -5.6126246139     1.5439001047
 F      3.5861517547    -5.9417062863     1.1728566214
 H      5.0963440488    -3.9464880846     2.7330938245
 F      5.5353355376    -4.6276265264     2.3038783823
 H      2.7777127730    -3.0624904777     2.6712778044
 F      3.5762628325    -2.7518467870     2.9979386375
 H      2.3795186092    -4.8932744229     1.4085784585
 F      1.7900271403    -4.2397166949     1.6659713574
          8
Energy: -25.929390542066074 Kcal/mole
 H      3.4564490221    -3.6039986617     2.4489482408
 F      4.1523757578    -3.0778305026     2.1665973123
 H      1.3994298883    -4.1094346707     2.1750675252
 F      2.0628313653    -4.4246592631     2.7240856821
 H      1.5233638106    -3.1529820134     0.3091025088
 F      0.7959787375    -3.3896297228     0.8148670953
 H      3.5568796971    -2.9434557005     0.5455053350
 F      3.0730117046    -2.8710480596    -0.2300705152
          8
Energy: -26.230412126420646 Kcal/mole
 H     -0.9248595691    -0.9846263992     1.7338103557
 F     -0.0669702856    -1.0228163860     1.4121638072
 H     -1.9107618748    -0.4267935677     3.3965862449
 F     -2.2654946430    -0.7614805954     2.6200308658
 H     -0.3373250400     0.8730849511     3.8437209586
 F     -0.9291000935     0.4937857098     4.4326380762
 H      0.5196534178     0.4093045456     2.0299665662
 F      0.5643473832     1.2174566234     2.4609905429
          8
Energy: -25.753487660674722 Kcal/mole
 H     -0.3505609578     4.6730275473    -2.1555132372
 F     -0.6875785114     4.4809204473    -1.3246082904
 H      0.8454852302     3.7618431482    -3.6503140138
 F      0.6670673560     4.6496697603    -3.5060227488
 H      0.4130833047     1.8963845062    -2.8347822868
 F      0.6309848806     2.0583759148    -3.7106628076
 H     -0.2466928778     2.8834363340    -1.2414614462
 F     -0.0175073097     1.9962727213    -1.2775682268
          8
Energy: -25.344912283405307 Kcal/mole
 H     -1.4737172168     0.4811483063    -1.5803726045
 F     -1.0453855420     1.0568589281    -1.0094275491
 H     -2.4074392706     0.7568318106    -3.5539899293
 F     -2.4557509186     0.0315320975    -2.9949771291
 H     -1.8948761365     2.6973761380    -3.9508975209
 F     -2.3790948352     2.1569247867    -4.5115521282
 H     -0.8891209642     2.6390518052    -1.9800972842
 F     -0.9098084734     3.2990894767    -2.6163451126
          8
Energy: -25.62899890900229 Kcal/mole
 H      0.3715969498     6.5314005120    -4.2466571615
 F      1.0186355369     6.6894443213    -4.8769366401
 H     -1.7503231366     6.7618375345    -3.9702602883
 F     -1.0695841912     6.5800536449    -3.3833717931
 H     -1.9532054742     7.1310772741    -5.9854386892
 F     -2.5941928167     7.0678866290    -5.3327280573
 H      0.1315719615     7.3699877930    -6.1667921705
 F     -0.4471805777     7.4885123667    -6.8681383217
          8
Energy: -26.145929677187382 Kcal/mole
 H     -5.1667493662     5.4558019618    -5.2760234030
 F     -5.4491614493     5.7079883128    -6.1112086876
 H     -3.3362700835     5.3550843688    -4.4301167624
 F     -4.1240659165     5.2480769722    -3.9731527129
 H     -2.3504968203     6.1277516046    -6.0268449037
 F     -1.9637486164     5.6262529894    -5.3636601891
 H     -4.1660250509     6.5976110994    -6.8826245166
 F     -3.3561358770     6.9755188819    -7.0879394794
          8
Energy: -25.828551393292145 Kcal/mole
 H     -3.7909365051     3.5179154483    -6.1415079431
 F     -3.9736623539     2.9183043836    -5.4722046970
 H     -3.9460888435     5.7238164452    -6.4312539861
 F     -3.7914421733     5.0468963551    -7.0302135832
 H     -3.6868560588     5.9681918268    -4.4349305905
 F     -4.0538928521     6.5800486039    -5.0109551357
 H     -3.3707302373     3.9099535434    -4.1298528320
 F     -3.1851124099     4.6268188477    -3.5889839408
          8
Energy: -25.967645928440902 Kcal/mole
 H     -0.4358543855     4.1872196515    -5.8414963169
 F     -0.6561952175     3.3508569335    -5.5368057825
 H     -0.5650761433     6.3536792996    -5.4101679176
 F     -0.1797152578     5.8514794176    -6.0736294962
 H     -1.9121516998     5.9195766188    -4.0033365417
 F     -1.4864208489     6.7166344439    -4.1593527781
 H     -1.8951890914     3.7792979695    -4.3383720914
 F     -2.4580222692     4.3480549337    -3.8904621342
          8
Energy: -26.071402459707855 Kcal/mole
 H     -2.8745812410     5.2013487646    -3.6153850494
 F     -2.4873757359     5.6767761586    -2.9335275203
 H     -4.9292035096     4.7234952995    -4.3087689546
 F     -4.1022266097     4.5088278818    -4.6418096530
 H     -5.6682137001     5.9708718698    -2.7959352537
 F     -6.1103306055     5.3408955921    -3.2944846811
 H     -3.6504650627     6.4674524592    -2.0784798295
 F     -4.4661410719     6.8557638801    -1.9210762447
          8
Energy: -25.83173265244551 Kcal/mole
 H     -1.3813674109     1.9427251128    -2.5937319126
 F     -1.6548490248     1.3541608747    -1.9458978718
 H     -1.5943593176     3.9150506880    -2.9037905543
 F     -1.0232730499     3.3398669006    -3.3326414439
 H     -2.3520808208     4.1342663755    -1.1067554756
 F     -2.6450645505     4.5792095258    -1.8531301316
 H     -1.7999182483     2.2928210528    -0.5100736226
 F     -1.8241429590     2.9978756518     0.0757592681
          8
Energy: -25.455559928762597 Kcal/mole
 H     -2.7538325268     2.9402616753    -3.7915912888
 F     -3.3661890814     2.8359552758    -4.4661493850
 H     -2.3142886218     4.5231983285    -2.2580836211
 F     -1.8441476083     3.7611850683    -2.4560538679
 H     -4.2185972322     5.5482167039    -3.1930383372
 F     -3.5525857927     5.7187580088    -2.5862159366
 H     -4.5134301340     4.1972929447    -4.7090723237
 F     -5.0485824171     4.9274780250    -4.5630217078
          8
Energy: -25.2411427231132 Kcal/mole
 H     -3.7840864036     4.6497915823    -2.8263599882
 F     -4.6374080814     4.3330657649    -2.7149334616
 H     -2.5811826182     6.0835757594    -3.5612222903
 F     -2.2084765158     5.3461997718    -3.1634084971
 H     -4.4262430998     7.0283718657    -3.8501919076
 F     -3.5681886662     7.3310260030    -3.9643499654
 H     -5.6484131197     5.4926390602    -3.4577290072
 F     -5.9409196901     6.2942668092    -3.7934697678
          8
Energy: -25.696559160830247 Kcal/mole
 H     -3.7687291846     4.9211758523     0.0013109920
 F     -3.4656586924     4.1464408742    -0.3844648374
 H     -5.5133712840     5.3113586481     0.9057146123
 F     -4.8037351827     5.8885979228     0.8416800633
 H     -6.6479852801     3.7454348358    -0.0494819401
 F     -6.7757681186     4.1947072822     0.7396408736
 H     -4.8933812528     3.3789921906    -1.2232234257
 F     -5.7757761337     3.2001857886    -1.3972824528
          8
Energy: -26.161339530183085 Kcal/mole
 H     -5.2501762691     2.0074672829    -0.6778305461
 F     -4.8276601073     1.6953135403    -1.4294482242
 H     -4.9778843451     1.8641410083     1.3338384961
 F     -5.6910825814     2.2139155232     0.8756954352
 H     -2.9182574770     1.1895960736     0.8822371245
 F     -3.4134393934     1.1709230695     1.6538167955
 H     -3.1299219395     1.3717122840    -1.1336881777
 F     -2.3361848886     1.3778671181    -0.6745230528
          8
Energy: -26.176864080422206 Kcal/mole
 H     -2.4610181054     1.7668764262    -0.0128504933
 F     -2.3633864978     0.9551466549    -0.4281237137
 H     -1.3415086775     3.1411144280     1.3383208180
 F     -2.1894420442     3.1384565484     0.9891919860
 H     -0.0292279960     1.5117085235     1.7026265312
 F      0.0421256600     2.4013375682     1.9132394902
 H     -1.1238540092     0.2532305385     0.3979643162
 F     -0.4198975995     0.0762816696     0.9583422878
          8
Energy: -25.690155287697053 Kcal/mole
 H     -2.3698014389     0.2779134033     2.5574941117
 F     -2.1226329713     0.2977505421     3.4403322829
 H     -2.6152950235     1.4711152684     0.9696803519
 F     -2.8335902000     0.5834552291     1.0424530838
 H     -1.9342093191     3.1633400823     2.3093447043
 F     -1.7525670695     2.9835571885     1.4286783633
 H     -2.3830940456     1.9841568879     3.8633772384
 F     -2.4860901536     2.8949556106     3.8903306889
          8
Energy: -26.290941515743583 Kcal/mole
 H     -2.0846384172     2.4702453399     2.3860488074
 F     -2.3276191812     3.3423894924     2.5316988181
 H     -0.3279913890     1.4457470442     1.7109016290
 F     -1.1869987931     1.1529500380     1.8422987102
 H      0.5227464718     3.3122355741     1.1936551819
 F      0.9371696407     2.4945299986     1.2160165060
 H     -1.2334237145     4.3642302233     1.6730705661
 F     -0.5211988803     4.6377613794     1.1643412745
          8
Energy: -25.95532165490664 Kcal/mole
 H      1.4606259540     2.6929204684     5.9192547120
 F      1.3032505722     3.5705085152     6.1336403675
 H      0.5351267412     1.0682398957     5.1242769394
 F      1.3024930243     1.0878991767     5.6259257210
 H     -1.2099986249     1.9881731489     5.0503852752
 F     -1.0149503414     1.2787649816     4.5030414899
 H     -0.3749612619     3.5640357942     6.1476638452
 F     -1.2222440693     3.2213526192     6.0730375375
          8
Energy: -26.07575157786752 Kcal/mole
 H     -0.8268943281     5.6203920438     6.1079617176
 F     -1.3431757424     6.2332720271     5.6621807989
 H      0.4541334429     4.0266765369     5.7029367601
 F      0.0932693924     4.2885970528     6.5042255847
 H     -0.1579426052     3.8213210227     3.7363688501
 F      0.6141483821     3.5102342014     4.1210628805
 H     -1.5442549004     5.4078080507     4.2269990953
 F     -1.4747697820     4.7916841443     3.5513866692
          8
Energy: -25.940843692576863 Kcal/mole
 H     -0.6276558473     6.1354725575     6.6475819807
 F     -1.1187141899     6.1838012856     7.4205082632
 H     -0.8229776196     4.9014355077     4.9547598269
 F     -0.2381058693     5.5971942338     5.0761428191
 H     -2.6135089660     3.8868489985     5.8131372925
 F     -2.1548277287     3.8195967403     5.0219497949
 H     -2.4671975085     5.1525324102     7.3688326878
 F     -3.0356656981     4.4422853537     7.2535849713
          8
Energy: -25.516232796750415 Kcal/mole
 H     -1.8008347806     7.4690764634     5.8194337087
 F     -2.3351836645     7.4466067572     6.5643198627
 H     -1.1099471686     6.1157162854     4.3976246495
 F     -0.8371576451     6.9627200250     4.6191185344
 H     -2.2291272503     4.5156752159     5.1935962539
 F     -1.9385658944     4.6540530351     4.3349259576
 H     -2.6416126457     5.6355445950     6.7557962923
 F     -2.7010996000     4.7204931644     6.7502122378
          8
Energy: -26.281260667479813 Kcal/mole
 H     -2.0349832525     7.0700307258     5.2056661422
 F     -2.1312755958     6.6809565883     6.0304316241
 H     -2.0835702215     6.6497345381     3.0304975904
 F     -1.9468435713     7.4090348428     3.5261364412
 H     -2.9124198859     4.6583613083     3.4284767185
 F     -2.6310466310     5.0184104696     2.6334404345
 H     -2.9101401567     5.2453468094     5.6380449750
 F     -3.2616288376     4.5681794744     5.1293317872
          8
Energy: -26.305853768604663 Kcal/mole
 H     -1.3485116868     6.5603771793     5.4433016970
 F     -1.9510626518     6.3718849110     6.1083520705
 H     -0.9690771310     6.0693682353     3.4308546070
 F     -0.5741405497     6.7047861671     3.9610980875
 H     -2.6315233449     4.7206953773     3.3819928408
 F     -1.9933029324     4.8416170869     2.7347358245
 H     -3.1271167212     5.3156839968     5.4734268186
 F     -3.5491258214     4.8510689112     4.8048984784
          8
Energy: -25.743127505709538 Kcal/mole
 H     -0.1482033712     3.9521213729     2.2874561268
 F      0.5836464094     4.1769342024     2.7921779218
 H     -2.1369463406     2.7009023920     2.4327794191
 F     -1.8196117510     3.2504741605     1.7708439015
 H     -1.3159128286     1.9660411517     4.2535003813
 F     -2.0751264540     1.6761639002     3.8287006047
 H      0.4040938962     3.2037819925     4.1365305957
 F      0.1882195444     2.6099439881     4.8010933758
          8
Energy: -26.001355515950138 Kcal/mole
 H     -2.4301347085     4.7260251832    -0.1439373815
 F     -1.5930499712     5.0702380766    -0.2912317348
 H     -3.2408595604     2.9009704481     0.8923230043
 F     -3.6036290744     3.5819660714     0.3968109048
 H     -1.5192847754     2.3170191537     1.8188083545
 F     -2.3334901920     1.9012530337     1.8902021425
 H     -0.8026768432     4.1336190017     0.8433470342
 F     -0.3806415593     3.5189391703     1.3771484242
          8
Energy: -26.01580300777897 Kcal/mole
 H     -3.1922861018     3.0129240591     0.2357466078
 F     -2.3425440151     2.6730819323     0.1779996160
 H     -5.2492488373     2.6132313948    -0.0481224244
 F     -4.8361905552     3.4188519862     0.0976421745
 H     -4.5729588113     0.6513349103    -0.6797892282
 F     -5.4157187069     0.9532220760    -0.4810207763
 H     -2.4707748988     1.0894994757    -0.4421599511
 F     -2.9525450590     0.4230037323    -0.8478321546
          8
Energy: -26.300341752322538 Kcal/mole
 H     -2.5973623321     2.8843959516    -1.8728098748
 F     -1.6851050921     2.8928087373    -1.7800469885
 H     -4.1704138797     1.3729776708    -2.4823255101
 F     -4.2241508347     2.2597455140    -2.2550720569
 H     -2.6421176709    -0.1898047013    -2.4363035799
 F     -3.5402655295    -0.2325939816    -2.6162716369
 H     -1.1581421423     1.3112577009    -1.8115366743
 F     -1.0777769802     0.4004708635    -1.8815207976
          8
Energy: -26.369480721072932 Kcal/mole
 H     -2.9572278566     2.4903257131    -1.5792804698
 F     -3.0630954732     2.3972687331    -0.6731781322
 H     -1.6332018516     1.7645209117    -3.2687281626
 F     -2.3528563201     2.3298543413    -3.2105511978
 H     -0.7112814369     0.4337143819    -2.0714658475
 F     -0.5212223013     0.5540713461    -2.9604431960
 H     -2.0020124860     1.1590233907    -0.3736484952
 F     -1.3303135195     0.5497896182    -0.5098237824
          8
Energy: -26.058061504576045 Kcal/mole
 H     -3.0148305611    -0.1374659347    -0.9393836747
 F     -2.7743066040     0.2142373447    -0.1273848882
 H     -1.9578859924    -0.7974537880    -2.9026011843
 F     -2.8189261233    -0.7373925823    -2.5929375853
 H     -0.1487198911    -0.1011967764    -2.3647166182
 F     -0.2742829183    -0.7026591521    -3.0454264953
 H     -1.2059573371     0.5959606223    -0.4401028291
 F     -0.3941810925     0.6846322213    -0.8572906480
          8
Energy: -26.484707997564897 Kcal/mole
 H     -1.8876899628     0.6206482105    -0.9686373367
 F     -1.9078534458     0.0671298192    -0.2378160011
 H     -0.5098658795     1.1330690611    -2.4678215782
 F     -1.3103912920     1.5374291745    -2.2766646722
 H      0.6353503004    -0.6235340730    -1.8790653041
 F      0.7578412113     0.0459163684    -2.4936554791
 H     -0.6879835566    -1.0519478472    -0.3343192338
 F      0.0788464580    -1.5078657448    -0.5464503238
          8
Energy: -26.449411571350083 Kcal/mole
 H     -2.3013848942    -1.1935943135    -2.0863862864
 F     -2.2920106422    -1.5496587641    -1.2413897004
 H     -1.0191553789    -0.1412497150    -3.3812742769
 F     -1.8445362834    -0.4889985822    -3.5780129052
 H      0.2531014438     0.0319063643    -1.7642857133
 F      0.3435768508     0.4015801809    -2.5985785096
 H     -0.8140902105    -1.1775442883    -0.5234018636
 F     -0.0093358041    -0.7616462320    -0.3809653791
          8
Energy: -26.64603080385939 Kcal/mole
 H     -1.4085003597    -1.7083800193    -2.3027224773
 F     -1.1727500997    -2.2627731256    -1.6113766170
 H     -0.4305306384    -0.2701037273    -3.4538499418
 F     -1.3081865248    -0.5311475227    -3.5035015486
 H      1.4159651299    -0.5351950204    -2.4413532528
 F      1.1561606875     0.0923433704    -3.0574589415
 H      0.5048117906    -2.0715457064    -1.3199136308
 F      1.3815410162    -1.8079376999    -1.3723129051
          8
Energy: -26.24170483546186 Kcal/mole
 H     -1.4529735763    -0.3544983425    -3.4918725926
 F     -1.9605809103    -0.3003799378    -2.7301016344
 H      0.5750453912    -1.1361695858    -4.1058728986
 F     -0.1642400665    -0.7593931666    -4.4962388065
 H      1.0586465811    -1.5356369491    -2.1606200170
 F      1.5600766634    -1.8045865338    -2.8797326600
 H     -0.8527469737    -0.8233102462    -1.6299301444
 F     -0.1361994487    -1.1137637928    -1.1368932476
          8
Energy: -26.49322082438286 Kcal/mole
 H     -0.1588167458    -1.5909656360    -4.3750592159
 F     -0.9711470163    -1.7225209244    -3.9704585019
 H      1.8577757742    -0.9306819989    -3.9542688766
 F      1.5112771961    -1.3192122446    -4.7091675345
 H      1.2648516783    -0.2348047903    -2.0876165833
 F      2.0992044666    -0.3280207375    -2.4564732109
 H     -0.7363094415    -0.7705800578    -2.5774595910
 F     -0.3949166807    -0.2330288226    -1.9176272999
          8
Energy: -26.712126524915078 Kcal/mole
 H     -0.3064948463    -0.4564566725    -4.7988504987
 F     -1.1676133583    -0.3123016992    -4.5185234541
 H      1.6151868226    -0.8280411887    -4.1047845971
 F      1.3249767979    -0.6977795257    -4.9648421770
 H      0.8145004767    -0.7426080068    -2.0499618184
 F      1.6566520697    -0.8937490066    -2.3798498185
 H     -1.1127442040    -0.3087662023    -2.8499653611
 F     -0.8591806208    -0.3664040885    -1.9706062858
          8
Energy: -26.644736547562758 Kcal/mole
 H      0.0881442082    -1.0678649908    -4.9305242302
 F     -0.6177642209    -0.6399541400    -4.5311815285
 H      1.8187432906    -1.9500566433    -4.4259803709
 F      1.4733742216    -1.9139579533    -5.2746888548
 H      1.3848461187    -1.4817064570    -2.3303495558
 F      2.1341701043    -1.8256417893    -2.7317359679
 H     -0.4198013629    -0.6437706853    -2.8730432024
 F     -0.1216453008    -0.8064781375    -2.0212696130
          8
Energy: -26.6009559368122 Kcal/mole
 H     -0.3053963532    -1.8280797232    -4.8801971297
 F     -0.8945586991    -1.1554760586    -4.6767738260
 H      1.1559454946    -3.0505003739    -3.9650198909
 F      0.8754880158    -3.0083826272    -4.8370627213
 H      0.8334834946    -1.8750091868    -2.1231180960
 F      1.3525310326    -2.6081193028    -2.3075854672
 H     -0.5163236719    -0.7122827563    -3.1620953716
 F     -0.2292379311    -0.6266929382    -2.2954090613
          8
Energy: -26.501837283960327 Kcal/mole
 H      0.4039345466    -0.7919067495    -4.3921039076
 F     -0.3967896312    -0.3449989730    -4.3939012227
 H      1.5179960898    -2.0210676032    -3.3617326385
 F      1.6785751168    -1.7306492496    -4.2165779788
 H      0.0041933039    -2.0337911678    -1.8341032300
 F      0.8679769762    -2.3413966678    -1.8461707006
 H     -1.2601529394    -0.9823563865    -3.0801811424
 F     -1.4926556276    -1.4025596368    -2.2989892784
          8
Energy: -26.736486128196873 Kcal/mole
 H      0.2380479885    -0.5801354582    -4.1254283410
 F     -0.6419469242    -0.3451345438    -4.0192561985
 H      1.7967220587    -1.6887907840    -3.2412137196
 F      1.7525101365    -1.2729502547    -4.0573086651
 H      0.4672461540    -2.1281995529    -1.6672777219
 F      1.3738479116    -2.2551999044    -1.7205051939
 H     -1.1212790265    -1.1663105884    -2.6058106269
 F     -1.1158459754    -1.6693167679    -1.8391006000
          8
Energy: -26.623681908129953 Kcal/mole
 H      0.0881890287    -0.9738457813    -4.4818564002
 F     -0.7463215944    -0.6288656264    -4.3222640672
 H      1.6988235031    -1.7521388272    -3.3942442868
 F      1.5695020017    -1.7341912445    -4.3019021704
 H      0.7325539273    -1.0803919246    -1.6530170696
 F      1.4977332107    -1.5731392199    -1.7652212013
 H     -0.8419271028    -0.3551961591    -2.6879887366
 F     -0.6600203576    -0.2879482842    -1.7917317091
          8
Energy: -26.760459415218378 Kcal/mole
 H     -0.4665820820    -2.0140991595    -3.9895927710
 F     -1.2344821736    -1.5223910002    -3.8924252076
 H      1.4866982488    -2.0214331848    -3.2732132789
 F      1.0731882462    -2.6109266526    -3.8410124768
 H      1.1029145573    -0.3125845580    -2.1502541506
 F      1.8945541216    -0.7578174522    -2.2766007773
 H     -0.8712049253    -0.3640169837    -2.7989868884
 F     -0.4724364786     0.2341045707    -2.2296685837
          8
Energy: -26.692508557389687 Kcal/mole
 H     -0.1921328783    -2.0185400841    -3.8429266141
 F     -0.9894401087    -1.6104250638    -3.6463755758
 H      1.7597241358    -2.0580689822    -3.2601069434
 F      1.3960645794    -2.5000541663    -3.9765494212
 H      1.2343579567    -0.5305674008    -1.8122338021
 F      1.9771059016    -1.0467677569    -1.9630704117
 H     -0.6779601665    -0.4015699572    -2.5045386922
 F     -0.2818502580     0.1290364078    -1.8701548763
          8
Energy: -26.7724882919552 Kcal/mole
 H     -0.2265924345    -2.0731808518    -3.7735643400
 F     -1.0504028193    -1.7940543472    -3.4831958771
 H      1.8105481023    -1.9698940572    -3.1908633830
 F      1.4371115008    -2.2947091223    -3.9628279405
 H      1.3118416183    -0.7189371609    -1.5650645301
 F      2.0834193093    -1.1863632589    -1.7295932804
 H     -0.6890277943    -0.6496224525    -2.3146884677
 F     -0.2594497187    -0.1221104007    -1.6998041598
          8
Energy: -26.80839636166229 Kcal/mole
 H     -0.1746542574    -2.1014522691    -3.7725126740
 F     -1.0078712522    -1.8800907524    -3.4600426461
 H      1.8345492081    -1.9718631156    -3.2328248598
 F      1.4764503826    -2.3359806616    -3.9944498619
 H      1.2875728692    -0.8430888905    -1.5320231413
 F      2.0972252549    -1.2135179718    -1.7514184695
 H     -0.7324897097    -0.8497163049    -2.1573762350
 F     -0.3195933253    -0.3710621016    -1.4930753021
          8
Energy: -26.84300236594595 Kcal/mole
 H     -0.1671123942    -2.1078661206    -3.7830099223
 F     -0.9957347561    -1.8635206798    -3.4754887247
 H      1.8427745424    -1.9764235070    -3.2345752619
 F      1.4760140476    -2.3357387434    -3.9943570071
 H      1.2856756779    -0.8387162641    -1.5495392234
 F      2.0933014034    -1.2108830278    -1.7734177340
 H     -0.7095167052    -0.8547094076    -2.1675374916
 F     -0.3208119901    -0.3707972291    -1.4925362709
