          8
Energy: -26.861226445032088 Kcal/mole
 H     -3.6279105611     1.8253387927     5.3788022777
 F     -3.4654844386     2.0997594902     6.2385697087
 H     -5.2081719168     1.1566408077     4.1676675514
 F     -4.3224646062     1.2801322216     3.9647847510
 H     -6.5244508345     1.3014000932     5.7968746699
 F     -6.6917528285     1.0521947930     4.9303899550
 H     -4.9407047644     1.9551486895     7.0142501509
 F     -5.8209218530     1.8055653915     7.2233714408
