          8
Energy: -26.86266751750017 Kcal/mole
 H     -3.9445720850     2.9332710121     5.0265933081
 F     -3.7533886855     3.3379362483     5.8269581964
 H     -5.4098106457     1.7163055538     4.1429693172
 F     -4.6404874282     2.0594561480     3.7806456267
 H     -6.4839047659     1.6992186116     5.9485663316
 F     -6.6773845137     1.2960911839     5.1479772584
 H     -5.0172490723     2.9168169450     6.8377702179
 F     -5.7854925793     2.5678997832     7.1968631422
          8
Energy: -26.862082552501164 Kcal/mole
 H     -3.9394586515     2.9334392208     5.0253051256
 F     -3.7536599414     3.3379273252     5.8270265315
 H     -5.4092899913     1.7124930851     4.1404332381
 F     -4.6405150477     2.0596583907     3.7807801599
 H     -6.4846952770     1.6981702976     5.9492837701
 F     -6.6773425789     1.2961467945     5.1479391999
 H     -5.0185458203     2.9139067242     6.8322281221
 F     -5.7854237898     2.5680541636     7.1971571376
          8
Energy: -26.862892885716548 Kcal/mole
 H     -3.9456530147     2.9368687157     5.0250433717
 F     -3.7533313447     3.3377453985     5.8270404169
 H     -5.4105968381     1.7142966882     4.1393718603
 F     -4.6404457225     2.0595627137     3.7808364635
 H     -6.4839719016     1.6970148507     5.9496882102
 F     -6.6773809523     1.2962080883     5.1479177453
 H     -5.0175967818     2.9144520790     6.8347502268
 F     -5.7854741341     2.5680252338     7.1970233458
          8
Energy: -26.863081026679055 Kcal/mole
 H     -3.9459851653     2.9334436062     5.0268449622
 F     -3.7533137249     3.3379270926     5.8269448467
 H     -5.4112115342     1.7155060399     4.1392133180
 F     -4.6404131143     2.0594985604     3.7808448738
 H     -6.4840567037     1.6962091615     5.9501108842
 F     -6.6773764537     1.2962508282     5.1478953235
 H     -5.0171994891     2.9151594142     6.8362730542
 F     -5.7854952095     2.5679877113     7.1969425633
          8
Energy: -26.86186937131066 Kcal/mole
 H     -3.9496613351     2.9388937754     5.0250055999
 F     -3.7531187126     3.3376379737     5.8270424206
 H     -5.4098556430     1.7131537052     4.1398602260
 F     -4.6404850412     2.0596233463     3.7808105568
 H     -6.4847810466     1.7008084538     5.9479751600
 F     -6.6773380290     1.2960068464     5.1480086187
 H     -5.0171035541     2.9145590378     6.8359002491
 F     -5.7855002987     2.5680195599     7.1969623397
          8
Energy: -26.862979122404568 Kcal/mole
 H     -3.9444520151     2.9350194165     5.0256831975
 F     -3.7533950550     3.3378434995     5.8270064756
 H     -5.4106717470     1.7154284607     4.1402976902
 F     -4.6404417488     2.0595026758     3.7807873504
 H     -6.4841177470     1.6974694091     5.9494959835
 F     -6.6773732155     1.2961839750     5.1479279425
 H     -5.0186628255     2.9174780111     6.8353997774
 F     -5.7854175829     2.5678647151     7.1969888886
          8
Energy: -26.862856692668686 Kcal/mole
 H     -3.9451213645     2.9347767867     5.0259651433
 F     -3.7533595475     3.3378563705     5.8269915191
 H     -5.4106879954     1.7154590606     4.1402921631
 F     -4.6404408868     2.0595010525     3.7807876436
 H     -6.4829098767     1.6967254731     5.9495758771
 F     -6.6774372903     1.2962234391     5.1479237043
 H     -5.0163818372     2.9166336396     6.8394527731
 F     -5.7855385841     2.5679095071     7.1967738865
          8
Energy: -26.863002961295507 Kcal/mole
 H     -3.9457818139     2.9336595605     5.0266868938
 F     -3.7533245122     3.3379156367     5.8269532319
 H     -5.4111299138     1.7157627286     4.1396348955
 F     -4.6404174441     2.0594849437     3.7808225101
 H     -6.4838849365     1.6969769452     5.9496861749
 F     -6.6773855656     1.2962100991     5.1479178533
 H     -5.0182540611     2.9173108721     6.8361059750
 F     -5.7854392669     2.5678735815     7.1969514264
          8
Energy: -26.862992921711225 Kcal/mole
 H     -3.9437809486     2.9319173211     5.0270905364
 F     -3.7534306535     3.3380080585     5.8269318196
 H     -5.4114517534     1.7163922969     4.1395459448
 F     -4.6404003712     2.0594515465     3.7808272287
 H     -6.4865950498     1.6986099447     5.9495173859
 F     -6.6772418004     1.2961234722     5.1479268072
 H     -5.0172803827     2.9157539004     6.8366737332
 F     -5.7854909183     2.5679561752     7.1969213082
          8
Energy: -26.862661934019968 Kcal/mole
 H     -3.9452809700     2.9299108364     5.0284716269
 F     -3.7533510808     3.3381144979     5.8268585559
 H     -5.4104479473     1.7144340350     4.1398235887
 F     -4.6404536208     2.0595554278     3.7808125004
 H     -6.4865558694     1.6987533885     5.9494360241
 F     -6.6772438788     1.2961158629     5.1479311232
 H     -5.0171352561     2.9165535942     6.8377579493
 F     -5.7854986169     2.5679137533     7.1968637930
          8
Energy: -26.862755948995158 Kcal/mole
 H     -3.9445138468     2.9410850433     5.0258096818
 F     -3.7542862226     3.3464363692     5.8260551152
 H     -5.4095253599     1.7149531606     4.1422907920
 F     -4.6405025620     2.0595278894     3.7806816209
 H     -6.4855026051     1.6983911117     5.9493666116
 F     -6.6772997520     1.2961350808     5.1479348054
 H     -5.0173332494     2.9169024810     6.8376732765
 F     -5.7854881139     2.5678952457     7.1968682847
          8
Energy: -26.861761835146552 Kcal/mole
 H     -3.9423838060     2.9428480475     5.0244166323
 F     -3.7543992163     3.3463428459     5.8261290132
 H     -5.4103017910     1.7123335476     4.1381070137
 F     -4.6404613741     2.0596668538     3.7809035607
 H     -6.4873710582     1.6997410712     5.9491326655
 F     -6.6772006349     1.2960634686     5.1479472157
 H     -5.0186046582     2.9147083946     6.8328657600
 F     -5.7854206686     2.5680116369     7.1971233124
          8
Energy: -26.86278144426771 Kcal/mole
 H     -3.9455074119     2.9403357961     5.0264266521
 F     -3.7542335162     3.3464761151     5.8260223863
 H     -5.4106592673     1.7145050270     4.1394383117
 F     -4.6404424108     2.0595516618     3.7808329384
 H     -6.4850695159     1.6977576988     5.9495804724
 F     -6.6773227264     1.2961686819     5.1479234606
 H     -5.0168689388     2.9165022726     6.8382784562
 F     -5.7855127445     2.5679164758     7.1968361813
          8
Energy: -26.861938443987356 Kcal/mole
 H     -3.9485827909     2.9438952554     5.0253696665
 F     -3.7540703745     3.3462872940     5.8260784570
 H     -5.4098926849     1.7136544118     4.1402634079
 F     -4.6404830762     2.0595967850     3.7807891690
 H     -6.4876298560     1.6966152093     5.9507607434
 F     -6.6771869063     1.2962292883     5.1478608499
 H     -5.0168268099     2.9151330788     6.8370426517
 F     -5.7855149793     2.5679891084     7.1969017379
          8
Energy: -26.862622527508364 Kcal/mole
 H     -3.9448893437     2.9410651045     5.0259091411
 F     -3.7542663033     3.3464374269     5.8260498391
 H     -5.4099363900     1.7120446918     4.1386129501
 F     -4.6404807578     2.0596821769     3.7808767219
 H     -6.4858782036     1.6997248747     5.9487855713
 F     -6.6772798274     1.2960643278     5.1479656282
 H     -5.0179126541     2.9169519050     6.8364847816
 F     -5.7854573778     2.5678926238     7.1969313316
          8
Energy: -26.862512879481926 Kcal/mole
 H     -3.9425710956     2.9382774169     5.0267783120
 F     -3.7543892810     3.3465853073     5.8260037316
 H     -5.4096330591     1.7144402334     4.1415718342
 F     -4.6404968488     2.0595550990     3.7807197600
 H     -6.4872391770     1.6978967646     5.9500278992
 F     -6.6772076309     1.2961613048     5.1478997256
 H     -5.0174237370     2.9159384789     6.8365463402
 F     -5.7854833137     2.5679463838     7.1969280661
          8
Energy: -26.86282397004993 Kcal/mole
 H     -3.9437876836     2.9394635783     5.0264607469
 F     -3.7543247438     3.3465223842     5.8260205777
 H     -5.4060779967     1.7164834904     4.1446091020
 F     -4.6357787871     2.0586268745     3.7834082819
 H     -6.4878562489     1.6975720936     5.9503362664
 F     -6.6771748967     1.2961785278     5.1478833674
 H     -5.0179429643     2.9173515497     6.8368076442
 F     -5.7854557699     2.5678714236     7.1969142045
          8
Energy: -26.863086778374253 Kcal/mole
 H     -3.9448835784     2.9400503584     5.0264227158
 F     -3.7542666091     3.3464912569     5.8260225951
 H     -5.4072779573     1.7155243480     4.1411203391
 F     -4.6357151320     2.0586777548     3.7835933528
 H     -6.4849536262     1.6965151414     5.9501738830
 F     -6.6773288741     1.2962345967     5.1478919815
 H     -5.0168122651     2.9171291065     6.8390107181
 F     -5.7855157509     2.5678832237     7.1967973365
          8
Energy: -26.863128910037886 Kcal/mole
 H     -3.9437282581     2.9378571359     5.0272666406
 F     -3.7543278962     3.3466076023     5.8259778269
 H     -5.4071527196     1.7149276881     4.1408172538
 F     -4.6357217755     2.0587094063     3.7836094307
 H     -6.4843590836     1.6972222311     5.9496778124
 F     -6.6773604132     1.2961970872     5.1479182969
 H     -5.0192004451     2.9205123009     6.8372121524
 F     -5.7853890634     2.5677037531     7.1968927463
          8
Energy: -26.862707782996353 Kcal/mole
 H     -3.9423661876     2.9363722369     5.0277063691
 F     -3.7544001509     3.3466863727     5.8259545003
 H     -5.4061149655     1.7142228905     4.1423742021
 F     -4.6357768260     2.0587467941     3.7835268382
 H     -6.4859616639     1.6961917231     5.9505761161
 F     -6.6772754000     1.2962517533     5.1478706440
 H     -5.0176576408     2.9152310343     6.8353675534
 F     -5.7854709056     2.5679839121     7.1969905980
          8
Energy: -26.863071565970046 Kcal/mole
 H     -3.9421481338     2.9372098260     5.0272251340
 F     -3.7544117182     3.3466419406     5.8259800287
 H     -5.4068215896     1.7151703371     4.1417643248
 F     -4.6357393412     2.0586965343     3.7835591908
 H     -6.4860121971     1.6991404753     5.9491118622
 F     -6.6772727193     1.2960953288     5.1479483193
 H     -5.0173826566     2.9166312147     6.8373043556
 F     -5.7854854929     2.5679096357     7.1968878551
          8
Energy: -26.862538229291943 Kcal/mole
 H     -3.9425896788     2.9388866639     5.0264717424
 F     -3.7543882952     3.3465529882     5.8260199944
 H     -5.4045468409     1.7130903030     4.1446400939
 F     -4.6358600114     2.0588068753     3.7834066379
 H     -6.4857619225     1.6965604685     5.9503446363
 F     -6.6772859958     1.2962321922     5.1478829234
 H     -5.0166952192     2.9141219444     6.8363505547
 F     -5.7855219599     2.5680427467     7.1969384521
          8
Energy: -26.862926018064485 Kcal/mole
 H     -3.9434518204     2.9396601138     5.0262812251
 F     -3.7543425606     3.3465119584     5.8260301009
 H     -5.4069558444     1.7152186329     4.1415215244
 F     -4.6357322193     2.0586939723     3.7835720708
 H     -6.4840200579     1.6966294438     5.9498923661
 F     -6.6773783977     1.2962285332     5.1479069153
 H     -5.0205359318     2.9214308446     6.8352776279
 F     -5.7853182190     2.5676550264     7.1969953683
          8
Energy: -26.862758261323137 Kcal/mole
 H     -3.9445708122     2.9415302842     5.0255978558
 F     -3.7542832007     3.3464127502     5.8260663521
 H     -5.4054176760     1.7138588445     4.1435187296
 F     -4.6358138156     2.0587661059     3.7834661237
 H     -6.4886943554     1.6991769667     5.9497288329
 F     -6.6771304370     1.2960933930     5.1479155904
 H     -5.0174665934     2.9155192087     6.8360507653
 F     -5.7854810403     2.5679686251     7.1969543552
          8
Energy: -26.863180013632984 Kcal/mole
 H     -3.9451575922     2.9395003197     5.0267679528
 F     -3.7542520733     3.3465204352     5.8260042811
 H     -5.4071071885     1.7144693937     4.1404740282
 F     -4.6357241909     2.0587337177     3.7836276381
 H     -6.4841950599     1.6963758027     5.9500611114
 F     -6.6773691143     1.2962419883     5.1478979638
 H     -5.0177109772     2.9182050016     6.8381340734
 F     -5.7854680763     2.5678261500     7.1968438405
          8
Energy: -26.863132873966265 Kcal/mole
 H     -3.9427183881     2.9399813520     5.0259448719
 F     -3.7543814675     3.3464949175     5.8260479437
 H     -5.4056496338     1.7125251698     4.1417380340
 F     -4.6358015108     2.0588368543     3.7835605855
 H     -6.4848187480     1.6962478678     5.9502748259
 F     -6.6773360291     1.2962487750     5.1478866267
 H     -5.0179504116     2.9185287071     6.8379380866
 F     -5.7854553748     2.5678089781     7.1968542372
          8
Energy: -26.862902688362908 Kcal/mole
 H     -3.9450311023     2.9382837638     5.0273584995
 F     -3.7542587833     3.3465849706     5.8259729540
 H     -5.4070750191     1.7138233941     4.1399192741
 F     -4.6357258974     2.0587679865     3.7836570665
 H     -6.4873570279     1.6981481334     5.9499298582
 F     -6.6772013792     1.2961479703     5.1479049265
 H     -5.0194380611     2.9198140223     6.8360239107
 F     -5.7853764585     2.5677407951     7.1969557798
          8
Energy: -26.86276837568124 Kcal/mole
 H     -3.9437840013     2.9377997383     5.0273092384
 F     -3.7543249392     3.3466106471     5.8259755672
 H     -5.4062503848     1.7138525269     4.1417270744
 F     -4.6357696423     2.0587664411     3.7835611669
 H     -6.4866666608     1.6945442978     5.9515622114
 F     -6.6772380016     1.2963391454     5.1478183339
 H     -5.0201306578     2.9197513914     6.8344971540
 F     -5.7853397178     2.5677441176     7.1970367707
          8
Energy: -26.863165498108373 Kcal/mole
 H     -3.9441621760     2.9395510517     5.0265050519
 F     -3.7543048779     3.3465177439     5.8260182274
 H     -5.4067700395     1.7130148565     4.1397956118
 F     -4.6357420758     2.0588108776     3.7836636265
 H     -6.4838602241     1.6979229270     5.9492066192
 F     -6.6773868765     1.2961599169     5.1479432926
 H     -5.0188483802     2.9192167701     6.8366943703
 F     -5.7854077397     2.5677724780     7.1969202134
          8
Energy: -26.862948350314866 Kcal/mole
 H     -3.9425900243     2.9360310459     5.0279345992
 F     -3.7543882769     3.3467044721     5.8259423932
 H     -5.4072559165     1.7160825400     4.1417026964
 F     -4.6357163012     2.0586481440     3.7835624601
 H     -6.4844945855     1.6966809839     5.9499808877
 F     -6.6773532251     1.2962257992     5.1479022195
 H     -5.0185739147     2.9196762861     6.8377287286
 F     -5.7854222994     2.5677481017     7.1968653431
          8
Energy: -26.86277742955062 Kcal/mole
 H     -3.9443889749     2.9392195529     5.0267277868
 F     -3.7542928467     3.3465353292     5.8260064118
 H     -5.4089879207     1.7166270779     4.1384721164
 F     -4.6356244224     2.0586192576     3.7837338349
 H     -6.4826940324     1.6964941725     5.9496389892
 F     -6.6774487403     1.2962357091     5.1479203564
 H     -5.0191143540     2.9192246369     6.8361366122
 F     -5.7853936304     2.5677720607     7.1969498012
          8
Energy: -26.862903703222827 Kcal/mole
 H     -3.9448189086     2.9387938837     5.0270472711
 F     -3.7542700397     3.3465579100     5.8259894639
 H     -5.4075024907     1.7164301643     4.1415036847
 F     -4.6357032210     2.0586297034     3.7835730172
 H     -6.4847834792     1.6994793386     5.9486468490
 F     -6.6773379000     1.2960773529     5.1479729871
 H     -5.0173772227     2.9166200847     6.8373051692
 F     -5.7854857812     2.5679102261     7.1968878120
          8
Energy: -26.862917845594097 Kcal/mole
 H     -3.9437646620     2.9425730954     5.0248802379
 F     -3.7543259651     3.3463574315     5.8261044200
 H     -5.4064304668     1.7138205779     4.1413086114
 F     -4.6357600894     2.0587681359     3.7835833653
 H     -6.4854862928     1.6960700774     5.9505232669
 F     -6.6773006174     1.2962582063     5.1478734475
 H     -5.0167913866     2.9154595554     6.8374336412
 F     -5.7855168584     2.5679717895     7.1968809968
          8
Energy: -26.86288126826517 Kcal/mole
 H     -3.9432865761     2.9378445702     5.0271684691
 F     -3.7543513264     3.3466082688     5.8259830346
 H     -5.4067038443     1.7129019294     4.1398292483
 F     -4.6357455873     2.0588168681     3.7836618421
 H     -6.4840630355     1.6966767659     5.9498790991
 F     -6.6773761179     1.2962260229     5.1479076191
 H     -5.0202390858     2.9216872966     6.8361574235
 F     -5.7853339659     2.5676414223     7.1969486972
          8
Energy: -26.86322162197314 Kcal/mole
 H     -3.9417367350     2.9376597013     5.0268981551
 F     -3.7544335419     3.3466180757     5.8259973742
 H     -5.4064566195     1.7142690879     4.1416842536
 F     -4.6357587020     2.0587443435     3.7835634384
 H     -6.4856246817     1.6980004689     5.9495917555
 F     -6.6772932761     1.2961558035     5.1479228620
 H     -5.0181659576     2.9179686262     6.8369318868
 F     -5.7854439406     2.5678386891     7.1969076137
          8
Energy: -26.862949726941338 Kcal/mole
 H     -3.9431381581     2.9422651437     5.0248876249
 F     -3.7543591997     3.3463737676     5.8261040282
 H     -5.4058066662     1.7136401680     4.1424759130
 F     -4.6357931806     2.0587777062     3.7835214427
 H     -6.4869059483     1.6967518161     5.9505213198
 F     -6.6772253079     1.2962220417     5.1478735508
 H     -5.0189000275     2.9171764309     6.8346063265
 F     -5.7854049999     2.5678807133     7.1970309793
          8
Energy: -26.86316664354885 Kcal/mole
 H     -3.9439501092     2.9398509696     5.0263021456
 F     -3.7543161275     3.3465018340     5.8260289911
 H     -5.4070702507     1.7149964879     4.1410614638
 F     -4.6357261503     2.0587057566     3.7835964760
 H     -6.4837148604     1.6970691220     5.9495990239
 F     -6.6773945877     1.2962052093     5.1479224765
 H     -5.0183548303     2.9170594695     6.8356486896
 F     -5.7854339214     2.5678869178     7.1969756844
          8
Energy: -26.863137392454774 Kcal/mole
 H     -3.9445601406     2.9400651904     5.0263381458
 F     -3.7542837668     3.3464904701     5.8260270814
 H     -5.4061648711     1.7136059701     4.1416734913
 F     -4.6357741786     2.0587795203     3.7835640093
 H     -6.4827716225     1.6972120425     5.9492990222
 F     -6.6774446243     1.2961976277     5.1479383909
 H     -5.0178564164     2.9184325073     6.8380451261
 F     -5.7854603611     2.5678140813     7.1968485590
          8
Energy: -26.863255840815867 Kcal/mole
 H     -3.9431072243     2.9382899340     5.0268983506
 F     -3.7543608406     3.3465846433     5.8259973638
 H     -5.4063992821     1.7143052508     4.1418423888
 F     -4.6357617437     2.0587424251     3.7835550497
 H     -6.4857121382     1.6986740092     5.9492746773
 F     -6.6772886368     1.2961200738     5.1479396823
 H     -5.0184728203     2.9185755056     6.8368687804
 F     -5.7854276623     2.5678064956     7.1969109614
          8
Energy: -26.863023297068082 Kcal/mole
 H     -3.9430250314     2.9397621785     5.0261285255
 F     -3.7543652008     3.3465065442     5.8260382013
 H     -5.4069935287     1.7165194740     4.1426840920
 F     -4.6357302202     2.0586249657     3.7835103993
 H     -6.4849685216     1.6974593452     5.9497056363
 F     -6.6773280839     1.2961845089     5.1479168209
 H     -5.0178845716     2.9159668998     6.8355932738
 F     -5.7854588675     2.5679448761     7.1969786241
          8
Energy: -26.862836860142494 Kcal/mole
 H     -3.9448973153     2.9426666687     5.0251017625
 F     -3.7542658804     3.3463524677     5.8260926687
 H     -5.4068515640     1.7146071735     4.1411587088
 F     -4.6357377511     2.0587264088     3.7835913173
 H     -6.4861482461     1.6969061672     5.9502641993
 F     -6.6772655023     1.2962138537     5.1478871904
 H     -5.0175234582     2.9185403980     6.8388640314
 F     -5.7854780237     2.5678083580     7.1968051179
          8
Energy: -26.863085589691536 Kcal/mole
 H     -3.9406446758     2.9395594780     5.0256740786
 F     -3.7544914731     3.3465172969     5.8260623086
 H     -5.4061417229     1.7133950967     4.1415199325
 F     -4.6357754066     2.0587907067     3.7835721553
 H     -6.4845491935     1.6971332474     5.9497680498
 F     -6.6773503283     1.2962018076     5.1479135100
 H     -5.0179514050     2.9167467640     6.8362037831
 F     -5.7854553221     2.5679035061     7.1969462379
          8
Energy: -26.862980187645178 Kcal/mole
 H     -3.9432817551     2.9406391071     5.0257438136
 F     -3.7543515822     3.3464600251     5.8260586093
 H     -5.4065264448     1.7138648427     4.1411444674
 F     -4.6357549980     2.0587657877     3.7835920728
 H     -6.4828672809     1.6969542778     5.9494511853
 F     -6.6774395499     1.2962113015     5.1479303190
 H     -5.0175544319     2.9154714434     6.8358179377
 F     -5.7854763806     2.5679711589     7.1969667062
          8
Energy: -26.862851734998486 Kcal/mole
 H     -3.9408092070     2.9375156398     5.0267550701
 F     -3.7544827451     3.3466257178     5.8260049645
 H     -5.4079243763     1.7156618116     4.1398542648
 F     -4.6356808409     2.0586704627     3.7836605151
 H     -6.4857080597     1.6954862689     5.9508667345
 F     -6.6772888531     1.2962891760     5.1478552273
 H     -5.0182342652     2.9184386196     6.8372439019
 F     -5.7854403170     2.5678137571     7.1968910621
          8
Energy: -26.86322860645538 Kcal/mole
 H     -3.9427481625     2.9390947016     5.0264030228
 F     -3.7543798880     3.3465419523     5.8260236398
 H     -5.4068420151     1.7152956671     4.1418405182
 F     -4.6357382577     2.0586898858     3.7835551489
 H     -6.4864736895     1.6978886729     5.9498502556
 F     -6.6772482382     1.2961617340     5.1479091492
 H     -5.0184315623     2.9172456852     6.8356658027
 F     -5.7854298509     2.5678770395     7.1969747766
          8
Energy: -26.862869457888905 Kcal/mole
 H     -3.9441541481     2.9408836226     5.0258263157
 F     -3.7543053037     3.3464470541     5.8260542328
 H     -5.4062145088     1.7135301909     4.1414936057
 F     -4.6357715454     2.0587835403     3.7835735518
 H     -6.4839776600     1.6996108862     5.9483862967
 F     -6.6773806468     1.2960703746     5.1479868088
 H     -5.0172160614     2.9190619426     6.8400371485
 F     -5.7854943304     2.5677806912     7.1967428868
          8
Energy: -26.862777139666917 Kcal/mole
 H     -3.9425754203     2.9384927729     5.0266693477
 F     -3.7543890516     3.3465738832     5.8260095119
 H     -5.4059695002     1.7163744762     4.1447371614
 F     -4.6357845426     2.0586326575     3.7834014887
 H     -6.4853623643     1.6964145658     5.9503219416
 F     -6.6773071915     1.2962399320     5.1478841273
 H     -5.0173977491     2.9160302889     6.8366904239
 F     -5.7854846923     2.5679415134     7.1969204228
          8
Energy: -26.863197766864886 Kcal/mole
 H     -3.9433543627     2.9409255117     5.0256157932
 F     -3.7543477305     3.3464448320     5.8260654005
 H     -5.4067012353     1.7142896941     4.1411771797
 F     -4.6357457257     2.0587432504     3.7835903375
 H     -6.4843715299     1.6987031445     5.9489382838
 F     -6.6773597529     1.2961185282     5.1479575272
 H     -5.0174560986     2.9172573815     6.8377556092
 F     -5.7854815970     2.5678764190     7.1968639172
          8
Energy: -26.862977389586177 Kcal/mole
 H     -3.9423157348     2.9398899190     5.0258966597
 F     -3.7544028273     3.3464997678     5.8260505012
 H     -5.4068855336     1.7155930252     4.1420316703
 F     -4.6357359491     2.0586741117     3.7835450087
 H     -6.4868023946     1.6964046882     5.9506698857
 F     -6.6772308012     1.2962404560     5.1478656697
 H     -5.0189835348     2.9202387426     6.8374061147
 F     -5.7854005700     2.5677182647     7.1968824570
          8
Energy: -26.862960380491558 Kcal/mole
 H     -3.9420772507     2.9419220658     5.0248115173
 F     -3.7544154784     3.3463919671     5.8261080655
 H     -5.4067376770     1.7151648495     4.1419396392
 F     -4.6357437926     2.0586968254     3.7835498908
 H     -6.4863924677     1.6979014931     5.9498245066
 F     -6.6772525469     1.2961610540     5.1479105151
 H     -5.0170438341     2.9166053653     6.8380039282
 F     -5.7855034667     2.5679110070     7.1968507444
          8
Energy: -26.862925244307803 Kcal/mole
 H     -3.9442672701     2.9384629315     5.0270848895
 F     -3.7542993029     3.3465754662     5.8259874684
 H     -5.4059790201     1.7127194306     4.1412172799
 F     -4.6357840376     2.0588265492     3.7835882103
 H     -6.4848065132     1.6994790725     5.9486525221
 F     -6.6773366781     1.2960773670     5.1479726862
 H     -5.0165099372     2.9182152101     6.8347523903
 F     -5.7854052318     2.5723183122     7.1953690315
          8
Energy: -26.863144930440455 Kcal/mole
 H     -3.9434639326     2.9391786522     5.0265292137
 F     -3.7543419181     3.3465374989     5.8260169457
 H     -5.4063187012     1.7142591092     4.1419713144
 F     -4.6357660183     2.0587448728     3.7835482105
 H     -6.4865847124     1.6991958864     5.9492204368
 F     -6.6772423487     1.2960923894     5.1479425596
 H     -5.0172242591     2.9214614593     6.8363629979
 F     -5.7853673387     2.5721461062     7.1952835925
          8
Energy: -26.86312697853512 Kcal/mole
 H     -3.9440460545     2.9390386034     5.0267385402
 F     -3.7543110379     3.3465449281     5.8260058414
 H     -5.4060907252     1.7145024606     4.1426943840
 F     -4.6357781119     2.0587319636     3.7835098533
 H     -6.4863392401     1.6982860705     5.9496190470
 F     -6.6772553705     1.2961406530     5.1479214143
 H     -5.0184784093     2.9220384178     6.8342497961
 F     -5.7853008089     2.5721154999     7.1953956930
          8
Energy: -26.86314906335096 Kcal/mole
 H     -3.9445063937     2.9397466000     5.0264873578
 F     -3.7542866179     3.3465073706     5.8260191660
 H     -5.4067904988     1.7136297153     4.1403473217
 F     -4.6357409905     2.0587782607     3.7836343595
 H     -6.4847587432     1.6997930241     5.9484827738
 F     -6.6773392122     1.2960607126     5.1479816909
 H     -5.0176616347     2.9215494815     6.8355139654
 F     -5.7853441369     2.5721414368     7.1953286318
          8
Energy: -26.862841696211945 Kcal/mole
 H     -3.9422263515     2.9370397160     5.0273307448
 F     -3.7544075689     3.3466509645     5.8259744263
 H     -5.4067553077     1.7148503591     4.1415999428
 F     -4.6357428573     2.0587135084     3.7835679109
 H     -6.4847465269     1.6969667686     5.9498986828
 F     -6.6773398602     1.2962106389     5.1479065802
 H     -5.0179625789     2.9194818144     6.8328805568
 F     -5.7853281726     2.5722511218     7.1954683280
          8
Energy: -26.863056485061378 Kcal/mole
 H     -3.9442550603     2.9404852765     5.0260522869
 F     -3.7542999506     3.3464681855     5.8260422455
 H     -5.4074851852     1.7148717395     4.1400443628
 F     -4.6357041390     2.0587123742     3.7836504308
 H     -6.4851090504     1.6976965112     5.9496206008
 F     -6.6773206292     1.2961719278     5.1479213319
 H     -5.0167529387     2.9201917248     6.8361387032
 F     -5.7853923412     2.5722134627     7.1952954909
          8
Energy: -26.862908274458846 Kcal/mole
 H     -3.9427767108     2.9380817037     5.0269267787
 F     -3.7543783736     3.3465956895     5.8259958558
 H     -5.4058735324     1.7138989251     4.1425811504
 F     -4.6357896335     2.0587639797     3.7835158601
 H     -6.4870934678     1.7010699453     5.9483957726
 F     -6.6772153604     1.2959929749     5.1479863062
 H     -5.0161957025     2.9188357205     6.8360206285
 F     -5.7854219013     2.5722853956     7.1953017544
          8
Energy: -26.86309800375878 Kcal/mole
 H     -3.9444638768     2.9397936203     5.0264533243
 F     -3.7542888733     3.3465048762     5.8260209714
 H     -5.4065952713     1.7131502573     4.1403050014
 F     -4.6357513469     2.0588036948     3.7836366045
 H     -6.4864958127     1.6996251180     5.9489831845
 F     -6.6772470647     1.2960696196     5.1479551453
 H     -5.0183767610     2.9213825259     6.8338310149
 F     -5.7853062012     2.5721502934     7.1954179084
          8
Energy: -26.863166334409584 Kcal/mole
 H     -3.9443253437     2.9390682398     5.0267897832
 F     -3.7542962222     3.3465433560     5.8260031231
 H     -5.4062515348     1.7132660709     4.1411588628
 F     -4.6357695813     2.0587975512     3.7835913092
 H     -6.4853775790     1.6989247065     5.9490686122
 F     -6.6773063844     1.2961067749     5.1479506136
 H     -5.0171578790     2.9214110146     6.8364559893
 F     -5.7853708600     2.5721487822     7.1952786596
          8
Energy: -26.863012740576636 Kcal/mole
 H     -3.9428821863     2.9375575425     5.0272198627
 F     -3.7543727784     3.3466234950     5.8259803083
 H     -5.4074290679     1.7143866541     4.1396973569
 F     -4.6357071159     2.0587381069     3.7836688387
 H     -6.4852518609     1.6999562982     5.9485188800
 F     -6.6773130534     1.2960520513     5.1479797756
 H     -5.0166119970     2.9194338165     6.8357071611
 F     -5.7853998178     2.5722536679     7.1953183832
          8
Energy: -26.86311460886924 Kcal/mole
 H     -3.9424140658     2.9386933219     5.0265290323
 F     -3.7543976111     3.3465632445     5.8260169553
 H     -5.4059800950     1.7127505660     4.1412450946
 F     -4.6357839806     2.0588248975     3.7835867348
 H     -6.4856257246     1.6993826682     5.9488975922
 F     -6.6772932208     1.2960824810     5.1479596858
 H     -5.0187038976     2.9220313690     6.8337646036
 F     -5.7852888473     2.5721158738     7.1954214314
          8
Energy: -26.86292460306788 Kcal/mole
 H     -3.9435272984     2.9371557275     5.0275783560