          20
Energy: -79.07830022674585 Kcal/mole
 H     -1.4090261159    -1.3267002089    -3.1596252432
 F     -2.3217047019    -1.4154607492    -3.1542993530
 H     -1.8220799276     2.0457687979    -3.3599137959
 F     -1.1070898523     1.7717718877    -2.8553309132
 H      1.0566169562     3.3380501284    -0.2301273644
 F      1.5311152742     3.1733746367     0.5370898986
 H     -0.1970769254     2.9329393343    -2.0729531476
 F      0.2507001592     3.6114432949    -1.6486689765
 H      3.1415168345     2.7910454139     0.4879971803
 F      3.9933964598     2.4763480005     0.3608923335
 H      2.3203201959     0.4574043031    -1.5298973777
 F      1.4557122814     0.6453658701    -1.7707554347
 H     -3.2674491037    -0.6494099513    -4.2771883707
 F     -3.7166423523    -0.1021833429    -4.8599897643
 H      4.0265395797     1.0559168054    -0.4827557371
 F      3.8522236309     0.3125391755    -0.9905870569
 H      0.6371194414    -0.4629527650    -2.7142841762
 F      0.2310727132    -1.1174145137    -3.2119737119
 H     -3.4346791966     1.5003840221    -4.5718282186
 F     -3.1292507473     2.3196128357    -4.2953022464
