          20
Energy: -79.0708224997588 Kcal/mole
 H     -1.4063147923    -1.3202802588    -3.1469771271
 F     -2.3199122055    -1.3973438526    -3.1299486446
 H     -1.8046688346     2.0478919102    -3.4049618067
 F     -1.0799907046     1.7705618052    -2.9162710857
 H      1.0487695613     3.3050467750    -0.2360884597
 F      1.5213946195     3.1364213623     0.5314270285
 H     -0.1899105424     2.9237998406    -2.0953555621
 F      0.2445113041     3.5982986819    -1.6512632606
 H      3.1372781654     2.7800645657     0.4807787120
 F      3.9923093687     2.4728886353     0.3564662459
 H      2.3212068031     0.4499880080    -1.5379679076
 F      1.4588811794     0.6413073040    -1.7843019200
 H     -3.2785633695    -0.6328983538    -4.2364782916
 F     -3.7354169784    -0.0913217604    -4.8186024824
 H      4.0271068016     1.0464803148    -0.4784737104
 F      3.8518860739     0.3001629244    -0.9816606034
 H      0.6459548742    -0.4671327575    -2.7281569694
 F      0.2371328679    -1.1271491520    -3.2161445986
 H     -3.4447990074     1.5136669433    -4.5668821362
 F     -3.1245206721     2.3348155691    -4.3138490905
          20
Energy: -79.07012236662979 Kcal/mole
 H     -1.4065265713    -1.3183239814    -3.1492118954
 F     -2.3199009711    -1.3974476286    -3.1298300953
 H     -1.7970295870     2.0526269579    -3.4134384559
 F     -1.0803959490     1.7703106219    -2.9158214190
 H      1.0484507883     3.3107285916    -0.2346201568
 F      1.5214115297     3.1361199551     0.5313491384
 H     -0.1867130287     2.9230867355    -2.0973827679
 F      0.2443416834     3.5983365105    -1.6511557221
 H      3.1383751393     2.7827622942     0.4816187930
 F      3.9922511767     2.4727455270     0.3564216815
 H      2.3210823890     0.4545257954    -1.5340843167
 F      1.4588877793     0.6410665849    -1.7845079355
 H     -3.2775357658    -0.6337464476    -4.2380776992
 F     -3.7354714904    -0.0912767710    -4.8185176375
 H      4.0277448376     1.0461551558    -0.4782142259
 F      3.8518522275     0.3001801733    -0.9816743685
 H      0.6453128092    -0.4718869005    -2.7212650408
 F      0.2371669279    -1.1268969557    -3.2165101995
 H     -3.4436213560     1.5114252665    -4.5610129948
 F     -3.1245831438     2.3349344849    -4.3141604349
          20
Energy: -79.07023764284908 Kcal/mole
 H     -1.4067415708    -1.3158353921    -3.1490139276
 F     -2.3198895659    -1.3975796426    -3.1298405970
 H     -1.8009015084     2.0525591939    -3.4078519378
 F     -1.0801905525     1.7703142166    -2.9161177709
 H      1.0476702758     3.3073203665    -0.2349066874
 F      1.5214529340     3.1363007535     0.5313643382
 H     -0.1900930439     2.9258246218    -2.0982375766
 F      0.2445209854     3.5981912720    -1.6511103764
 H      3.1350182695     2.7717804607     0.4853058726
 F      3.9924292509     2.4733280879     0.3562260905
 H      2.3193898293     0.4489083629    -1.5325188805
 F      1.4589775657     0.6413645767    -1.7845909783
 H     -3.2788851950    -0.6360681446    -4.2391905574
 F     -3.7353999063    -0.0911536103    -4.8184586030
 H      4.0264579336     1.0481712096    -0.4807645877
 F      3.8519204948     0.3000732263    -0.9815390777
 H      0.6459007885    -0.4691311322    -2.7254211900
 F      0.2371357370    -1.1270431428    -3.2162897253
 H     -3.4478144694     1.5147142357    -4.5664423856
 F     -3.1243607088     2.3347600127    -4.3138724183
          20
Energy: -79.07046034187667 Kcal/mole
 H     -1.4056040805    -1.3127095507    -3.1475317067
 F     -2.3192052090    -1.3888387880    -3.1268842559
 H     -1.8027437720     2.0475772827    -3.4079811052
 F     -1.0800928247     1.7705784955    -2.9161109189
 H      1.0484052287     3.3067730588    -0.2354824519
 F      1.5214139465     3.1363297869     0.5313948812
 H     -0.1885026017     2.9249377037    -2.0984458519
 F      0.2444366161     3.5982383209    -1.6510993279
 H      3.1363773526     2.7765188917     0.4832614124
 F      3.9923571547     2.4730767251     0.3563345443
 H      2.3200162820     0.4463446044    -1.5366650660
 F      1.4589443338     0.6415005782    -1.7843710327
 H     -3.2747145085    -0.6318958949    -4.2385845819
 F     -3.7356211516    -0.0913749385    -4.8184907486
 H      4.0296111894     1.0455948430    -0.4780400580
 F      3.8517532219     0.3002098966    -0.9816836077
 H      0.6443586195    -0.4698588165    -2.7231702042
 F      0.2372175455    -1.1270045409    -3.2164091349
 H     -3.4366875388     1.5126745388    -4.5736932172
 F     -3.1249509668     2.3348682139    -4.3134877784
          20
Energy: -79.0697650952088 Kcal/mole
 H     -1.4057672800    -1.3108558505    -3.1478275835
 F     -2.3191965516    -1.3889371225    -3.1268685603
 H     -1.8008804797     2.0540420368    -3.4070285573
 F     -1.0801916680     1.7702355552    -2.9161614494
 H      1.0436456883     3.3055019801    -0.2328077056
 F      1.5216664291     3.1363972147     0.5312529920
 H     -0.1942256851     2.9268113657    -2.0956754163
 F      0.2447402125     3.5981389275    -1.6512462931
 H      3.1379649680     2.7824358467     0.4796115805
 F      3.9922729354     2.4727628443     0.3565281595
 H      2.3209798553     0.4521579324    -1.5355112135
 F      1.4588932185     0.6411921946    -1.7844322419
 H     -3.2796842885    -0.6322516330    -4.2350004060
 F     -3.7353575162    -0.0913560675    -4.8186808808
 H      4.0287478807     1.0437896923    -0.4750769555
 F      3.8517990184     0.3003056557    -0.9818407934
 H      0.6433235737    -0.4710019435    -2.7208013644
 F      0.2372724523    -1.1269439006    -3.2165347964
 H     -3.4405665389     1.5132930701    -4.5709540425
 F     -3.1247451948     2.3348354022    -4.3136330853
          20
Energy: -79.0693068415588 Kcal/mole
 H     -1.4060892480    -1.3083553390    -3.1519561432
 F     -2.3191794720    -1.3890697689    -3.1266495498
 H     -1.8004991205     2.0511294149    -3.4092578823
 F     -1.0802118983     1.7703900631    -2.9160431888
 H      1.0436275803     3.3070779811    -0.2324457681
 F      1.5216673897     3.1363136115     0.5312337921
 H     -0.1929146374     2.9220754721    -2.0970260295
 F      0.2412679759     3.5958370630    -1.6515826807
 H      3.1356420909     2.7762674984     0.4788195465
 F      3.9923961586     2.4730900609     0.3565701751
 H      2.3219950878     0.4537339391    -1.5378494178
 F      1.4588393627     0.6411085911    -1.7843082056
 H     -3.2770456255    -0.6322706903    -4.2370882562
 F     -3.7354974912    -0.0913550565    -4.8185701252
 H      4.0280697548     1.0480646978    -0.4811701641
 F      3.8518349914     0.3000788765    -0.9815175628
 H      0.6405663884    -0.4646675913    -2.7214196168
 F      0.2311009671    -1.1180515022    -3.2177224818
 H     -3.4456185938     1.5137372696    -4.5660701836
 F     -3.1244771949     2.3348118385    -4.3138921627
          20
Energy: -79.0686009106684 Kcal/mole
 H     -1.4066983167    -1.3002736753    -3.1460678740
 F     -2.3191471623    -1.3894984825    -3.1269619088
 H     -1.8022775177     2.0518736804    -3.4062232871
 F     -1.0801175584     1.7703505815    -2.9162041671
 H      1.0448983072     3.3119829389    -0.2321266484
 F      1.5215999806     3.1360534148     0.5312168635
 H     -0.1938829809     2.9236163174    -2.0984066250
 F      0.2413193442     3.5957553247    -1.6515094433
 H      3.1357389808     2.7761869075     0.4796950697
 F      3.9923910189     2.4730943361     0.3565237306
 H      2.3205838780     0.4510777203    -1.5349635909
 F      1.4589142242     0.6412494973    -1.7844612920
 H     -3.2735973597    -0.6293071884    -4.2370688994
 F     -3.7356804138    -0.0915122634    -4.8185711520
 H      4.0293699065     1.0456894057    -0.4780948756
 F      3.8517660214     0.3002048803    -0.9816806998
 H      0.6407905358    -0.4638016213    -2.7227473161
 F      0.2310890766    -1.1180974399    -3.2176520505
 H     -3.4430876519     1.5145033116    -4.5717065169
 F     -3.1246114555     2.3347712017    -4.3135931682
          20
Energy: -79.06742232253248 Kcal/mole
 H     -1.4059927459    -1.3082678603    -3.1478428619
 F     -2.3191845912    -1.3890744094    -3.1268677498
 H     -1.7999689564     2.0538503066    -3.4084745317
 F     -1.0802400222     1.7702457261    -2.9160847438
 H      1.0485676324     3.3042251856    -0.2361441272
 F      1.5214053314     3.1364649457     0.5314299815
 H     -0.1860823441     2.9154921840    -2.0936077416
 F      0.2409055385     3.5961862912    -1.6517640130
 H      3.1352466269     2.7740324219     0.4815370128
 F      3.9924171371     2.4732086266     0.3564260198
 H      2.3258680295     0.4513265667    -1.5260199101
 F      1.4629573159     0.6422489066    -1.7706068282
 H     -3.2806800713    -0.6334093025    -4.2352980023
 F     -3.7353046923    -0.0912946558    -4.8186650940
 H      4.0301715692     1.0483590163    -0.4823566832
 F      3.8517234950     0.3000632636    -0.9814546207
 H      0.6415824799    -0.4669853644    -2.7192185047
 F      0.2310470658    -1.1179285497    -3.2178392457
 H     -3.4456678417     1.5134837897    -4.5651803619
 F     -3.1244745824     2.3348252850    -4.3139393657
          20
Energy: -79.06780883039947 Kcal/mole
 H     -1.4061553942    -1.3067445356    -3.1489649451
 F     -2.3191759631    -1.3891552183    -3.1268082259
 H     -1.8008010026     2.0480400854    -3.4105633667
 F     -1.0801958841     1.7705539449    -2.9159739359
 H      1.0446437660     3.3063692546    -0.2332388535
 F      1.5216134834     3.1363512078     0.5312758634
 H     -0.1967226262     2.9268271982    -2.1004439584
 F      0.2414699809     3.5955849949    -1.6514013675
 H      3.1371188955     2.7811647209     0.4768956620
 F      3.9923178176     2.4728302746     0.3566722327
 H      2.3265470884     0.4531534048    -1.5269998834
 F      1.4629212934     0.6421519971    -1.7705548429
 H     -3.2770653999    -0.6283322877    -4.2334351493
 F     -3.7354964422    -0.0915639797    -4.8187639141
 H      4.0249225172     1.0469925271    -0.4784780653
 F      3.8520019451     0.3001357527    -0.9816603724
 H      0.6401690685    -0.4667526690    -2.7183615069
 F      0.2311220440    -1.1179408936    -3.2178847075
 H     -3.4459167698     1.5136672731    -4.5654615922
 F     -3.1244613774     2.3348155516    -4.3139244471
          20
Energy: -79.06937310341978 Kcal/mole
 H     -1.4012813132    -1.3149012041    -3.1443623868
 F     -2.3140037887    -1.4023194466    -3.1307707086
 H     -1.8001232765     2.0494005469    -3.4107850079
 F     -1.0802318359     1.7704817755    -2.9159621783
 H      1.0473092288     3.3062296622    -0.2349259741
 F      1.5214720868     3.1363586129     0.5313653613
 H     -0.1943063309     2.9235876286    -2.0979507484
 F      0.2413418020     3.5957568466    -1.6515336265
 H      3.1380451337     2.7791778049     0.4880174103
 F      3.9922686828     2.4729356759     0.3560822496
 H      2.3251971076     0.4511990313    -1.5237643843
 F      1.4629929068     0.6422556721    -1.7707264787
 H     -3.2772792740    -0.6338274202    -4.2383558688
 F     -3.7354850967    -0.0912724756    -4.8185028813
 H      4.0231915432     1.0461010567    -0.4765678145
 F      3.8520937693     0.3001830431    -0.9817617068
 H      0.6407423266    -0.4622160075    -2.7248108976
 F      0.2310916340    -1.1181815530    -3.2175425822
 H     -3.4429227565     1.5135782808    -4.5689530187
 F     -3.1246202029     2.3348202725    -4.3137392350
          20
Energy: -79.069562007862 Kcal/mole
 H     -1.4012461606    -1.3162893320    -3.1497364000
 F     -2.3140056534    -1.4022458096    -3.1304856296
 H     -1.7995373826     2.0531915004    -3.4094830710
 F     -1.0802629162     1.7702806742    -2.9160312431
 H      1.0463412359     3.3060111730    -0.2343745522
 F      1.5215234365     3.1363702032     0.5313361096
 H     -0.1912746618     2.9205482183    -2.0963079320
 F      0.2411809789     3.5959180803    -1.6516207741
 H      3.1377994781     2.7812390835     0.4814531899
 F      3.9922817142     2.4728263298     0.3564304664
 H      2.3266766590     0.4490698908    -1.5306937175
 F      1.4629144200     0.6423686181    -1.7703588936
 H     -3.2776433637    -0.6318012724    -4.2361815853
 F     -3.7354657826    -0.0913799580    -4.8186182220
 H      4.0254963599     1.0473823203    -0.4792549608
 F      3.8519715041     0.3001150751    -0.9816191599
 H      0.6358270102    -0.4638239610    -2.7186528282
 F      0.2313523802    -1.1180962548    -3.2178692536
 H     -3.4425321513     1.5134043346    -4.5688800590
 F     -3.1246409236     2.3348294999    -4.3137431053
          20
Energy: -79.07011271329047 Kcal/mole
 H     -1.4003782550    -1.3251276509    -3.1453709153
 F     -2.3140516938    -1.4017769572    -3.1307172085
 H     -1.7983881189     2.0555839055    -3.4097790341
 F     -1.0803238820     1.7701537627    -2.9160155429
 H      1.0506223828     3.3067441789    -0.2368517448
 F      1.5212963316     3.1363313190     0.5314675190
 H     -0.1878708713     2.9239408881    -2.1014456572
 F      0.2495738749     3.5970629974    -1.6582327062
 H      3.1372648223     2.7768949342     0.4882407018
 F      3.9923100765     2.4730567769     0.3560704045
 H      2.3258851417     0.4516585108    -1.5258214926
 F      1.4629564082     0.6422312978    -1.7706173538
 H     -3.2716916523    -0.6338351883    -4.2428227365
 F     -3.7357815071    -0.0912720635    -4.8182659243
 H      4.0265127558     1.0467042409    -0.4785994119
 F      3.8519175866     0.3001510456    -0.9816539353
 H      0.6505798103    -0.4689822935    -2.7029820725
 F      0.2408091398    -1.1249187315    -3.1956527403
 H     -3.4426660180     1.5130368493    -4.5675260309
 F     -3.1246338222     2.3348489942    -4.3138149334
          20
Energy: -79.06972487155093 Kcal/mole
 H     -1.4006137323    -1.3215248442    -3.1395018623
 F     -2.3140392023    -1.4019680778    -3.1310285482
 H     -1.7996255419     2.0538069567    -3.4090010466
 F     -1.0802582396     1.7702480257    -2.9160568134
 H      1.0588373217     3.3264406935    -0.2360556688
 F      1.5268645137     3.1580463356     0.5343227367
 H     -0.1823363261     2.9213063955    -2.1028600715
 F      0.2492802801     3.5972027511    -1.6581576748
 H      3.1373885676     2.7790342627     0.4840344998
 F      3.9923035121     2.4729432905     0.3562935338
 H      2.3249528637     0.4487953981    -1.5247858556
 F      1.4630058634     0.6423831793    -1.7706722920
 H     -3.2752061088    -0.6343085845    -4.2404513572
 F     -3.7355950733    -0.0912469509    -4.8183917205
 H      4.0295303933     1.0472062158    -0.4804049011
 F      3.8517575079     0.3001244170    -0.9815581582
 H      0.6478376225    -0.4651626739    -2.7058189327
 F      0.2409546065    -1.1251213535    -3.1955022514
 H     -3.4419843971     1.5137095617    -4.5705387441
 F     -3.1246699807     2.3348133083    -4.3136551159
          20
Energy: -79.06942238437077 Kcal/mole
 H     -1.4005218165    -1.3229644086    -3.1425525239
 F     -2.3140440782    -1.4018917122    -3.1308667176
 H     -1.7983835906     2.0581044201    -3.4083195382
 F     -1.0803241222     1.7700200552    -2.9160929658
 H      1.0535249171     3.3202008951    -0.2341437679
 F      1.5271463245     3.1583773425     0.5342213148
 H     -0.1822713889     2.9213593573    -2.1030035610
 F      0.2492768353     3.5971999416    -1.6581500630
 H      3.1380405349     2.7811969734     0.4831916208
 F      3.9922689267     2.4728285636     0.3563382466
 H      2.3262255155     0.4513736361    -1.5272479167
 F      1.4629383521     0.6422464097    -1.7705416853
 H     -3.2759753032    -0.6365027863    -4.2419072526
 F     -3.7355542693    -0.0911305536    -4.8183144886
 H      4.0288110347     1.0481330001    -0.4815340911
 F      3.8517956683     0.3000752532    -0.9814982573
 H      0.6452501397    -0.4691334252    -2.6984008038
 F      0.2410918665    -1.1249107143    -3.1958957660
 H     -3.4413192004     1.5124173379    -4.5672028176
 F     -3.1247052678     2.3348818578    -4.3138320791
          20
Energy: -79.06926920907553 Kcal/mole
 H     -1.4007200716    -1.3201462006    -3.1375119507
 F     -2.3140335612    -1.4020412116    -3.1311341084
 H     -1.7995072022     2.0553096469    -3.4083064002
 F     -1.0802645172     1.7701683114    -2.9160936627
 H      1.0529026505     3.3221447609    -0.2333475197
 F      1.5271793343     3.1582742249     0.5341790757
 H     -0.1877670152     2.9229469598    -2.1000350999
 F      0.2495683656     3.5971157230    -1.6583075330
 H      3.1383771828     2.7835257467     0.4797247079
 F      3.9922510683     2.4727050276     0.3565221583
 H      2.3268102362     0.4522770399    -1.5286205306
 F      1.4629073341     0.6421984862    -1.7704688713
 H     -3.2782589153    -0.6371812329    -4.2407348483
 F     -3.7354331290    -0.0910945636    -4.8183766819
 H      4.0279467597     1.0436720514    -0.4746255242
 F      3.8518415161     0.3003118963    -0.9818647408
 H      0.6508048960    -0.4683796810    -2.7039730875
 F      0.2407971995    -1.1249506987    -3.1956001693
 H     -3.4326355071     1.5104582772    -4.5714918313
 F     -3.1251659177     2.3349857814    -4.3136045568
          20
Energy: -79.07101650648698 Kcal/mole
 H     -1.4010543258    -1.3166455585    -3.1391774215
 F     -2.3140158298    -1.4022269126    -3.1310457590
 H     -1.8003145057     2.0506203444    -3.4098166106
 F     -1.0802216917     1.7704170681    -2.9160135496
 H      1.0528648671     3.3226051326    -0.2332257242
 F      1.5271813386     3.1582498032     0.5341726147
 H     -0.1885356159     2.9240742950    -2.1009913822
 F      0.2496091381     3.5970559205    -1.6582568045
 H      3.1402981730     2.7852298091     0.4883902435
 F      3.9921491642     2.4726146310     0.3560624717
 H      2.3266812242     0.4520816921    -1.5283134183
 F      1.4629141778     0.6422088490    -1.7704851629
 H     -3.2756247047    -0.6365455480    -4.2422274575
 F     -3.7355728678    -0.0911282852    -4.8182975024
 H      4.0257191516     1.0491145895    -0.4819193061
 F      3.8519596855     0.3000231822    -0.9814778226
 H      0.6508254222    -0.4689854437    -2.7031822694
 F      0.2407961107    -1.1249185644    -3.1956421203
 H     -3.4448380937     1.5189154063    -4.5701369956
 F     -3.1267661759     2.3396412938    -4.3129828147
          20
Energy: -79.07095896482926 Kcal/mole
 H     -1.4008932866    -1.3184943982    -3.1402567601
 F     -2.3140243726    -1.4021288359    -3.1309885026
 H     -1.7976512230     2.0549233338    -3.4112292480
 F     -1.0803629726     1.7701888045    -2.9159386124
 H      1.0526227336     3.3238110012    -0.2328166492
 F      1.5271941832     3.1581858347     0.5341509142
 H     -0.1860377599     2.9212160557    -2.0990972549
 F      0.2494766326     3.5972075435    -1.6583572835
 H      3.1400768969     2.7861011535     0.4848543402
 F      3.9921609024     2.4725684082     0.3562500432
 H      2.3252735787     0.4456763142    -1.5284150400
 F      1.4629888502     0.6425486395    -1.7704797721
 H     -3.2762125426    -0.6343392294    -4.2396798904
 F     -3.7355416843    -0.0912453253    -4.8184326450
 H      4.0230549643     1.0482522153    -0.4797128922
 F      3.8521010145     0.3000689291    -0.9815948677
 H      0.6452092984    -0.4659623499    -2.7025767052
 F      0.2410940331    -1.1250789325    -3.1956742441
 H     -3.4413861309     1.5170320416    -4.5683576645
 F     -3.1269492945     2.3397412019    -4.3130772041
          20
Energy: -79.07039336872593 Kcal/mole
 H     -1.4009897574    -1.3173740498    -3.1395514597
 F     -2.3140192550    -1.4021882678    -3.1310259171
 H     -1.8041429114     2.0480912739    -3.4056277399
 F     -1.0800186036     1.7705512295    -2.9162357595
 H      1.0518236092     3.3198839242    -0.2331591189
 F      1.5272365749     3.1583941571     0.5341690815
 H     -0.1861010399     2.9223292928    -2.1007374699
 F      0.2494799895     3.5971484888    -1.6582702739
 H      3.1398070216     2.7863993873     0.4823120397
 F      3.9921752187     2.4725525876     0.3563849064
 H      2.3260658405     0.4485394389    -1.5289284178
 F      1.4629468225     0.6423967573    -1.7704525386
 H     -3.2715296795    -0.6318464771    -4.2410846941
 F     -3.7357900994    -0.0913775600    -4.8183581234
 H      4.0248143284     1.0465454705    -0.4777780685
 F      3.8520076843     0.3001594680    -0.9816975056
 H      0.6511707599    -0.4685591245    -2.7040387456
 F      0.2407777913    -1.1249411796    -3.1955966862
 H     -3.4432776672     1.5187283044    -4.5714612776
 F     -3.1268489529     2.3396512191    -4.3129125646
          20
Energy: -79.07096809938022 Kcal/mole
 H     -1.4009257615    -1.3187949304    -3.1449249946
 F     -2.3140226498    -1.4021128934    -3.1307408635
 H     -1.8008694025     2.0534311261    -3.4073974869
 F     -1.0801922557     1.7702679626    -2.9161418785
 H      1.0487170425     3.3181594774    -0.2315869494
 F      1.5274013711     3.1584856350     0.5340856815
 H     -0.1942657144     2.9272510978    -2.0952700768
 F      0.2410154782     3.6020370889    -1.6524573066
 H      3.1394806865     2.7853576237     0.4826939447
 F      3.9921925300     2.4726078508     0.3563646472
 H      2.3259033806     0.4498722225    -1.5272878950
 F      1.4629554406     0.6423260562    -1.7705395646
 H     -3.2784393453    -0.6375194153    -4.2409119179
 F     -3.7354235576    -0.0910766238    -4.8183672888
 H      4.0243842267     1.0487205979    -0.4808673993
 F      3.8520305002     0.3000440825    -0.9815336238
 H      0.6487506048    -0.4676920561    -2.7031838679
 F      0.2409061749    -1.1249871756    -3.1956420355
 H     -3.4400487469     1.5163730572    -4.5678761464
 F     -3.1270202397     2.3397761595    -4.3131027475
          20
Energy: -79.06972958314427 Kcal/mole
 H     -1.4005340250    -1.3235929148    -3.1468874317
 F     -2.3140434306    -1.4018583714    -3.1306367608
 H     -1.8017276412     2.0496519592    -3.4082998105
 F     -1.0801467281     1.7704684387    -2.9160940123
 H      1.0478830096     3.3195963483    -0.2307635171
 F      1.5274456146     3.1584094123     0.5340420003
 H     -0.1911250779     2.9277295370    -2.0990573165
 F      0.2408488747     3.6020117089    -1.6522564023
 H      3.1404071807     2.7869376490     0.4849999327
 F      3.9921433816     2.4725240341     0.3562423199
 H      2.3246033508     0.4467211947    -1.5252035291
 F      1.4630244042     0.6424932110    -1.7706501354
 H     -3.2777791956    -0.6356263228    -4.2396480431
 F     -3.7354585770    -0.0911770480    -4.8184343344
 H      4.0241031383     1.0475113742    -0.4789678252
 F      3.8520454113     0.3001082291    -0.9816343918
 H      0.6516833515    -0.4699773670    -2.7025776290
 F      0.2407505995    -1.1248659451    -3.1956741951
 H     -3.4456250124     1.5183495308    -4.5673396850
 F     -3.1267244317     2.3396713122    -4.3131312056
          20
Energy: -79.06998971951793 Kcal/mole
 H     -1.4009344804    -1.3182479306    -3.1419288345
 F     -2.3140221873    -1.4021419105    -3.1308998029
 H     -1.8003861248     2.0499998789    -3.4100637669
 F     -1.0802178924     1.7704499824    -2.9160004385
 H      1.0486590558     3.3265663181    -0.2297465976
 F      1.5274044471     3.1580396715     0.5339880551
 H     -0.1921065504     2.9266157242    -2.0964167079
 F      0.2409009395     3.6020707940    -1.6523964805
 H      3.1388841446     2.7837132094     0.4827256099
 F      3.9922241752     2.4726950831     0.3563629674
 H      2.3253381424     0.4472486038    -1.5273740227
 F      1.4629854252     0.6424652331    -1.7705349957
 H     -3.2745709417    -0.6342373213    -4.2408909189
 F     -3.7356287675    -0.0912507313    -4.8183684027
 H      4.0254641252     1.0422992722    -0.4717686091
 F      3.8519732141     0.3003847190    -0.9820162936
 H      0.6508240280    -0.4666984554    -2.7062428755
 F      0.2407961846    -1.1250398838    -3.1954797622
 H     -3.4472578743     1.5195036439    -4.5690060749
 F     -3.1266378121     2.3396100891    -4.3130428074
          20
Energy: -79.06976747203636 Kcal/mole
 H     -1.4007497616    -1.3202832506    -3.1419186322
 F     -2.3140319862    -1.4020339414    -3.1309003441
 H     -1.8086491108     2.0532175387    -3.3965560226
 F     -1.0887833035     1.7708094212    -2.9036788830
 H      1.0420718423     3.3179349180    -0.2274370798
 F      1.5277538836     3.1584975473     0.5338655405
 H     -0.1993474370     2.9204671546    -2.0873565960
 F      0.2315963633     3.5971814082    -1.6432459566
 H      3.1391782804     2.7844614205     0.4828675799
 F      3.9922085720     2.4726553923     0.3563554362
 H      2.3257598121     0.4516319397    -1.5254007951
 F      1.4629630566     0.6422327073    -1.7706396709
 H     -3.2735173393    -0.6354865713    -4.2429129137
 F     -3.7356846586    -0.0911844615    -4.8182611406
 H      4.0224730124     1.0444889349    -0.4739545334
 F      3.8521318857     0.3002685625    -0.9819003353
 H      0.6517330709    -0.4721039129    -2.6998077913
 F      0.2407479620    -1.1247531368    -3.1958211286
 H     -3.4412569789     1.5172749991    -4.5692977611
 F     -3.1269561458     2.3397283136    -4.3130273342
          20
Energy: -79.07169611596152 Kcal/mole
 H     -1.4005406984    -1.3227369383    -3.1424897053
 F     -2.3140430766    -1.4019037790    -3.1308700500
 H     -1.8063480009     2.0521605757    -3.4004990397
 F     -1.0889053721     1.7708654907    -2.9034697151
 H      1.0468125085     3.3187056495    -0.2302784942
 F      1.5275024022     3.1584566618     0.5340162710
 H     -0.2057923129     2.9232857480    -2.0853341189
 F      0.2319382491     3.5970318883    -1.6433532443
 H      3.1393345471     2.7838301937     0.4854475165
 F      3.9922002824     2.4726888774     0.3562185766
 H      2.3260716033     0.4499600149    -1.5278158960
 F      1.4629465168     0.6423213990    -1.7705115553
 H     -3.2755969467    -0.6352358208    -4.2410125014
 F     -3.7355743403    -0.0911977632    -4.8183619531
 H      4.0310413960     1.0441263074    -0.4763789915
 F      3.8516773527     0.3002877990    -0.9817717234
 H      0.6525973797    -0.4741327948    -2.7043811926
 F      0.2449765613    -1.1337087320    -3.1939665799
 H     -3.4441953215     1.5172474483    -4.5655591780
 F     -3.1268002735     2.3397297751    -4.3132256574
          20
Energy: -79.07147863484711 Kcal/mole
 H     -1.4008913180    -1.3187472179    -3.1421392470
 F     -2.3140244770    -1.4021154244    -3.1308886410
 H     -1.8052231799     2.0505151601    -3.4030428394
 F     -1.0889650412     1.7709527761    -2.9033347724
 H      1.0423837693     3.3200878251    -0.2271818823
 F      1.5277373366     3.1583833406     0.5338520029
 H     -0.2031059561     2.9246127356    -2.0899810546
 F      0.2317957441     3.5969614947    -1.6431067351
 H      3.1400542009     2.7872592010     0.4818379421
 F      3.9921621064     2.4725069765     0.3564100562
 H      2.3254215037     0.4499288855    -1.5255406986
 F      1.4629810031     0.6423230504    -1.7706322493
 H     -3.2765920181    -0.6354912140    -4.2404616198
 F     -3.7355215540    -0.0911842152    -4.8183911761
 H      4.0246776103     1.0459711539    -0.4768817326
 F      3.8520149369     0.3001899342    -0.9817450542
 H      0.6492549514    -0.4721108853    -2.7083335301
 F      0.2403689796    -1.1317619857    -3.1967613015
 H     -3.4407615927     1.5176104454    -4.5709753600
 F     -3.1269824249     2.3397105189    -4.3129383414
          20
Energy: -79.07031464479336 Kcal/mole
 H     -1.4005037187    -1.3231328085    -3.1422702690
 F     -2.3140450382    -1.4018827790    -3.1308816906
 H     -1.8028490618     2.0587995009    -3.4017310376
 F     -1.0890909827     1.7705133110    -2.9034043605
 H      1.0491203448     3.3239461880    -0.2306085251
 F      1.5273799768     3.1581786634     0.5340337784
 H     -0.1964458803     2.9206768487    -2.0904701235
 F      0.2314424425     3.5971702844    -1.6430807912
 H      3.1387640180     2.7826169353     0.4845930578
 F      3.9922305476     2.4727532379     0.3562639036
 H      2.3264938738     0.4550036326    -1.5253884329
 F      1.4629241163     0.6420538468    -1.7706403266
 H     -3.2726709855    -0.6324891875    -4.2407702109
 F     -3.7357295558    -0.0913434657    -4.8183748060
 H      4.0252225668     1.0470944730    -0.4787326663
 F      3.8519860282     0.3001303447    -0.9816468664
 H      0.6463401752    -0.4710165541    -2.7073828172
 F      0.2405236017    -1.1318200374    -3.1968117346
 H     -3.4475381641     1.5183327701    -4.5648652507
 F     -3.1266229434     2.3396722013    -4.3132624686
          20
Energy: -79.07184479932113 Kcal/mole
 H     -1.4009309052    -1.3185313826    -3.1436445919
 F     -2.3140223770    -1.4021268740    -3.1308087859
 H     -1.8066680013     2.0522328309    -3.3999958561
 F     -1.0888883968     1.7708616577    -2.9034964078
 H      1.0476083288     3.3206556738    -0.2303670904
 F      1.5274601858     3.1583532175     0.5340209708
 H     -0.2047085044     2.9221932116    -2.0847388225
 F      0.2318807556     3.5970898448    -1.6433848234
 H      3.1397704764     2.7862157526     0.4825220144
 F      3.9921771573     2.4725623290     0.3563737677
 H      2.3272371607     0.4576500466    -1.5260043137
 F      1.4628846867     0.6419134606    -1.7706076556
 H     -3.2769142771    -0.6344738328    -4.2392498992
 F     -3.7355044590    -0.0912381849    -4.8184554550
 H      4.0272362267     1.0524972079    -0.4838247351
 F      3.8561106362     0.3107463613    -0.9951081340
 H      0.6520635317    -0.4771181650    -2.7066447196
 F      0.2389071726    -1.1316789405    -3.1983163723
 H     -3.4436654677     1.5175904962    -4.5673363933
 F     -3.1268283810     2.3397115772    -4.3131313802
          20
Energy: -79.07098248192264 Kcal/mole
 H     -1.4007131190    -1.3206167826    -3.1413343739