          20
Energy: -79.06092566733939 Kcal/mole
 H     -1.4056099512    -1.3486575684    -3.1111806364
 F     -2.3202958445    -1.4086951228    -3.0859971361
 H     -1.8212112095     2.0619603432    -3.3951293286
 F     -1.0972506314     1.7819430473    -2.9069076624
 H      1.0400399477     3.3373971905    -0.2477265483
 F      1.5090168294     3.1735228770     0.5230489662
 H     -0.1919810276     2.9458303492    -2.1180862759
 F      0.2460192164     3.6170037944    -1.6724732233
 H      3.1178766204     2.8041076682     0.4639476202
 F      3.9725085392     2.4969382759     0.3369033450
 H      2.3223993191     0.4498269298    -1.5459936997
 F      1.4633502757     0.6434004254    -1.8018316225
 H     -3.2779714437    -0.6403179699    -4.1934915836
 F     -3.7293273739    -0.1004877646    -4.7814968334
 H      4.0100119692     1.0583153558    -0.4816022704
 F      3.8409181617     0.3063030663    -0.9783655950
 H      0.6402341215    -0.4834548708    -2.7205427766
 F      0.2339547891    -1.1498347289    -3.2019615017
 H     -3.4571775443     1.5141192839    -4.5456855959
 F     -3.1471232950     2.3414703729    -4.3002359309
          20
Energy: -79.06350970310288 Kcal/mole
 H     -1.4072994102    -1.3274734433    -3.1125582259
 F     -2.3202062226    -1.4098188916    -3.0859240581
 H     -1.8215634954     2.0602814615    -3.3955664760
 F     -1.0972319435     1.7820321081    -2.9068844727
 H      1.0433851727     3.3476096041    -0.2475117667
 F      1.5088393730     3.1729811321     0.5230375725
 H     -0.1958372301     2.9429986557    -2.1099251707
 F      0.2462237790     3.6171540092    -1.6729061510
 H      3.1179919629     2.8042115735     0.4644710750
 F      3.9725024205     2.4969327640     0.3368755769
 H      2.3223850146     0.4498259042    -1.5459464493
 F      1.4633510345     0.6434004798    -1.8018341291
 H     -3.2702681043    -0.6380743923    -4.1974163830
 F     -3.7297360183    -0.1006067812    -4.7812886319
 H      4.0109174330     1.0563402738    -0.4789331104
 F      3.8408701290     0.3064078398    -0.9785071878
 H      0.6501471302    -0.4888932132    -2.7215216871
 F      0.2334289269    -1.1495462374    -3.2019095727
 H     -3.4500395143     1.5122094078    -4.5481347031
 F     -3.1475019510     2.3415716874    -4.3001060114
          20
Energy: -79.05663688451752 Kcal/mole
 H     -1.4066433718    -1.3353422177    -3.1131603569
 F     -2.3202410239    -1.4094014713    -3.0858921165
 H     -1.8196844664     2.0603068490    -3.3983251403
 F     -1.0973316216     1.7820307613    -2.9067381320
 H      1.0361774765     3.3378359297    -0.2452687057
 F      1.5092217246     3.1734996029     0.5229185833
 H     -0.1919089514     2.9403787436    -2.1098303633
 F      0.2460153929     3.6172929895    -1.6729111803
 H      3.1111418285     2.7824264569     0.4831526015
 F      3.9654090031     2.4758024355     0.3523921187
 H      2.3228018041     0.4517810057    -1.5458748754
 F      1.4633289248     0.6432967662    -1.8018379259
 H     -3.2833285128    -0.6440231889    -4.2046910903
 F     -3.7294133191    -0.1004420024    -4.7932629544
 H      4.0088623831     1.0588856825    -0.4820763195
 F      3.8409791446     0.3062728118    -0.9783404478
 H      0.6348552688    -0.4801746938    -2.7205872843
 F      0.2342401248    -1.1500087347    -3.2019591406
 H     -3.4625467648     1.5156252422    -4.5439058657
 F     -3.1468384702     2.3413904853    -4.3003303414
          20
Energy: -79.0611463241449 Kcal/mole
 H     -1.4070924545    -1.3326703032    -3.1199244756
 F     -2.3202172011    -1.4095432102    -3.0855332956
 H     -1.8224864404     2.0587196655    -3.3950839436
 F     -1.0971829834     1.7821149577    -2.9069100700
 H      1.0337251858     3.3376081385    -0.2438017008
 F      1.5093518130     3.1735116867     0.5228407621
 H     -0.1950409635     2.9413702716    -2.1082111439
 F      0.2461815389     3.6172403912    -1.6729970762
 H      3.1114827593     2.7884198997     0.4705400811
 F      3.9653909175     2.4754844972     0.3530611837
 H      2.3242465335     0.4525464769    -1.5501971792
 F      1.4632522853     0.6432561597    -1.8016086377
 H     -3.2716108330    -0.6499319182    -4.2077454448
 F     -3.7206390844    -0.1059996785    -4.7937491547
 H      4.0065078112     1.0529828581    -0.4724685984
 F      3.8411040492     0.3065859430    -0.9788501152
 H      0.6438143806    -0.4793167602    -2.7356423011
 F      0.2240221697    -1.1353674808    -3.2196474164
 H     -3.4526145090     1.5154414823    -4.5556452703
 F     -3.1473653535     2.3414002333    -4.2997075931
          20
Energy: -79.06058396968481 Kcal/mole
 H     -1.4070197390    -1.3325340314    -3.1176065742
 F     -2.3202210585    -1.4095504391    -3.0856562549
 H     -1.8233091244     2.0588335249    -3.3937945913
 F     -1.0971393419     1.7821089178    -2.9069784671
 H      1.0382864440     3.3412175959    -0.2458328569
 F      1.5091098487     3.1733202133     0.5229485103
 H     -0.2076523937     2.9460994013    -2.0993643909
 F      0.2261926327     3.6210470216    -1.6553900641
 H      3.1315566152     2.7954435975     0.4861469356
 F      3.9822142272     2.4777048730     0.3584256369
 H      2.3213371881     0.4481675526    -1.5437016185
 F      1.4634066193     0.6434884515    -1.8019532122
 H     -3.2656603714    -0.6426448776    -4.2056247059
 F     -3.7209547426    -0.1063862392    -4.7938616550
 H      4.0077952282     1.0545627852    -0.4752301499
 F      3.8410357547     0.3065021315    -0.9787036213
 H      0.6491384027    -0.4837269282    -2.7229148055
 F      0.2298645948    -1.1372448113    -3.2107804125
 H     -3.4542101099     1.5160229883    -4.5556129386
 F     -3.1472807105     2.3413693858    -4.2997093083
          20
Energy: -79.05730232827725 Kcal/mole
 H     -1.4074417594    -1.3287034409    -3.1200887872
 F     -2.3201986713    -1.4097536431    -3.0855245793
 H     -1.8183375998     2.0622315923    -3.3992079684
 F     -1.0974030698     1.7819286581    -2.9066913000
 H      1.0323303080     3.3430623549    -0.2417441899
 F      1.5094258080     3.1732223531     0.5227316159
 H     -0.2019327251     2.9459774165    -2.1046955975
 F      0.2258892175     3.6210534926    -1.6551072559
 H      3.1242027515     2.7981137063     0.4788488675
 F      3.9720895449     2.4704996544     0.3578281318
 H      2.3258564573     0.4573397985    -1.5521360074
 F      1.4631668825     0.6430018851    -1.8015057873
 H     -3.2720267340    -0.6479029588    -4.2055516446
 F     -3.7206170218    -0.1061073101    -4.7938655308
 H      4.0046875852     1.0509262263    -0.4688639586
 F      3.8412006080     0.3066950425    -0.9790413330
 H      0.6472818605    -0.4827789224    -2.7225939823
 F      0.2299630800    -1.1372951009    -3.2107974314
 H     -3.4536304255     1.5123858369    -4.5442856807
 F     -3.1473114614     2.3415623282    -4.3003101931
          20
Energy: -79.05588107562353 Kcal/mole
 H     -1.4070626951    -1.3340979266    -3.1222139585
 F     -2.3202187798    -1.4094674781    -3.0854118438
 H     -1.8201584313     2.0568773748    -3.3995555690
 F     -1.0973064789     1.7822126870    -2.9066728606
 H      1.0316620966     3.3381692789    -0.2423971519
 F      1.5094612551     3.1734819195     0.5227662540
 H     -0.2136678891     2.9436927844    -2.0952137123
 F      0.2226540433     3.6199985398    -1.6557564372
 H      3.1188635135     2.7820653981     0.4835452033
 F      3.9723727792     2.4713509801     0.3575790021
 H      2.3214489486     0.4602048698    -1.5349531034
 F      1.4613082832     0.6452702204    -1.7934059070
 H     -3.2655162641    -0.6417571326    -4.2049281018
 F     -3.7209623872    -0.1064333320    -4.7938986083
 H      4.0010634988     1.0561195825    -0.4753635128
 F      3.8413928574     0.3064195470    -0.9786965467
 H      0.6392948610    -0.4777634851    -2.7225865932
 F      0.2303867719    -1.1375611582    -3.2107978234
 H     -3.4647722055     1.5206126327    -4.5574674994
 F     -3.1467204158     2.3411259157    -4.2996109281
          20
Energy: -79.06138995908803 Kcal/mole
 H     -1.4198449215    -1.3232912156    -3.1168305206
 F     -2.3332739703    -1.3966784668    -3.0829087835
 H     -1.8178843983     2.0590141853    -3.4016846136
 F     -1.0974271111     1.7820993341    -2.9065599197
 H      1.0360565219     3.3430177937    -0.2440662744
 F      1.5092281410     3.1732247170     0.5228547971
 H     -0.2052927451     2.9367520622    -2.0926982927
 F      0.2222097613     3.6203667291    -1.6558898744
 H      3.1212381353     2.7914784564     0.4757695691
 F      3.9722468110     2.4708516391     0.3579914815
 H      2.3223227271     0.4618656579    -1.5366851484
 F      1.4612619313     0.6451821194    -1.7933140260
 H     -3.2831641951    -0.6361746234    -4.2050827460
 F     -3.7345960298    -0.0985825995    -4.7950769107
 H      4.0117709781     1.0514454263    -0.4719531429
 F      3.8408248504     0.3066675002    -0.9788774589
 H      0.6425177175    -0.4760450993    -2.7276503101
 F      0.2302158068    -1.1376523146    -3.2105292049
 H     -3.4581783814     1.5148243972    -4.5467922521
 F     -3.1470702029     2.3414329682    -4.3001772253
          20
Energy: -79.05337401367669 Kcal/mole
 H     -1.4005499470    -1.3187816279    -3.1086323375
 F     -2.3155724718    -1.3717604198    -3.0800661575
 H     -1.8161590551     2.0622963362    -3.4023444296
 F     -1.0975186366     1.7819252236    -2.9065249180
 H      1.0349408712     3.3391122687    -0.2442312667
 F      1.5092873237     3.1734318961     0.5228635496
 H     -0.2020416033     2.9409818592    -2.1110679956
 F      0.2384294892     3.6117429839    -1.6672733016
 H      3.1221406101     2.7925171865     0.4793954561
 F      3.9721989367     2.4707965369     0.3577991366
 H      2.3295460363     0.4568532723    -1.5580667244
 F      1.4695594000     0.6462223675    -1.8139013021
 H     -3.2797474330    -0.6292104613    -4.2014171417
 F     -3.7347772811    -0.0989520322    -4.7952713626
 H      4.0122516141     1.0587152313    -0.4829774572
 F      3.8407993538     0.3062818538    -0.9782926445
 H      0.6510407158    -0.4830106482    -2.7175781410
 F      0.2359152208    -1.1455541630    -3.1967398198
 H     -3.4645524588     1.5180413087    -4.5494102976
 F     -3.1467320728     2.3412623185    -4.3000383440
          20
Energy: -79.0580707309081 Kcal/mole
 H     -1.4010368241    -1.3118817647    -3.1104861411
 F     -2.3155466441    -1.3721264416    -3.0799678175
 H     -1.8188682444     2.0589357685    -3.3932297009
 F     -1.0985219267     1.7732686965    -2.9029394739
 H      1.0486544783     3.3508575848    -0.2495222472
 F      1.5189041510     3.1774220500     0.5183803251
 H     -0.1995002043     2.9303456678    -2.0971426430
 F      0.2382946738     3.6123072092    -1.6680120094
 H      3.1205350904     2.7891039652     0.4771182216
 F      3.9722841059     2.4709776004     0.3579199386
 H      2.3255732821     0.4537526854    -1.5472983078
 F      1.4697701454     0.6463868464    -1.8144725417
 H     -3.2842429931    -0.6308427857    -4.1994537196
 F     -3.7345388021    -0.0988654412    -4.7953755176
 H      4.0102217864     1.0536975586    -0.4747554926
 F      3.8409070314     0.3065480298    -0.9787288008
 H      0.6521477139    -0.4803968693    -2.7221834651
 F      0.2358564971    -1.1456928179    -3.1964955180
 H     -3.4577526874     1.5155970484    -4.5498968176
 F     -3.1470927850     2.3413919809    -4.3000125353
          20
Energy: -79.05577797517938 Kcal/mole
 H     -1.4011656103    -1.3097747831    -3.1101066897
 F     -2.3155398123    -1.3722382121    -3.0799879465
 H     -1.8210681504     2.0540824411    -3.3927946354
 F     -1.0984052268     1.7735261543    -2.9029625531
 H      1.0495576375     3.3351679864    -0.2553407031
 F      1.5171837912     3.1575791402     0.5132144231
 H     -0.2023873101     2.9371235264    -2.1048293282
 F      0.2384478281     3.6119476595    -1.6676042485
 H      3.1189060606     2.7828380996     0.4972396260
 F      3.9721429365     2.4667543285     0.3833674029
 H      2.3272095386     0.4513088047    -1.5544185157
 F      1.4696833458     0.6465164887    -1.8140948312
 H     -3.2692091237    -0.6279755602    -4.2120554449
 F     -3.7239605159    -0.0966670004    -4.8051839179
 H      4.0119950181     1.0463931561    -0.4646872505
 F      3.8408129656     0.3069355114    -0.9792628977
 H      0.6467560747    -0.4802135895    -2.7177624473
 F      0.2361425111    -1.1457025405    -3.1967300428
 H     -3.4638550391     1.5201336776    -4.5570722076
 F     -3.1467690693     2.3411513232    -4.2996318974
          20
Energy: -79.06038344786981 Kcal/mole
 H     -1.4011269676    -1.3126765005    -3.1144711997
 F     -2.3155418622    -1.3720842827    -3.0797564193
 H     -1.8170620816     2.0629975981    -3.3934954415
 F     -1.0986177395     1.7730532258    -2.9029253770
 H      1.0425713762     3.3171986323    -0.2519034305
 F      1.5190453290     3.1456432168     0.5125769889
 H     -0.2022622194     2.9319387224    -2.0968439135
 F      0.2384411924     3.6122227014    -1.6680278563
 H      3.1355753045     2.7768628173     0.4869443115
 F      3.9920621518     2.4675989299     0.3788928040
 H      2.3333950191     0.4610459439    -1.5525730547
 F      1.4697610372     0.6465610027    -1.7987630390
 H     -3.2698712724    -0.6245653334    -4.2085148272
 F     -3.7239253905    -0.0968479050    -4.8053717395
 H      4.0288603836     1.0587571228    -0.4744094191
 F      3.8610113846     0.3253152158    -0.9986027829
 H      0.6503891048    -0.4809726319    -2.7198422698
 F      0.2359497872    -1.1456622750    -3.1966197130
 H     -3.4488140380     1.5130322143    -4.5523386712
 F     -3.1475669597     2.3415280394    -4.2998830006
          20
Energy: -79.05931491165143 Kcal/mole
 H     -1.4011276869    -1.3095336533    -3.1084035430
 F     -2.3155418240    -1.3722510035    -3.0800782945
 H     -1.8371664958     2.0618777999    -3.3683381855
 F     -1.1168349520     1.7742468432    -2.8791757383
 H      1.0472481502     3.3212458912    -0.2538810244
 F      1.5187972370     3.1454285191     0.5126818957
 H     -0.2049386283     2.9314865150    -2.0933518993
 F      0.2385831697     3.6122466899    -1.6682130996
 H      3.1373510649     2.7796421955     0.4928425115
 F      3.9919679518     2.4674514903     0.3785799181
 H      2.3312895222     0.4594228326    -1.5465039539
 F      1.4698727290     0.6466471050    -1.7990849908
 H     -3.2686072266    -0.6264234890    -4.2111298360
 F     -3.7239924452    -0.0967493342    -4.8052330193
 H      4.0341765875     1.0623994309    -0.4812973096
 F      3.8607293722     0.3251219998    -0.9982373962
 H      0.6532652992    -0.4756823946    -2.7286645201
 F      0.2467440435    -1.1423530687    -3.2094760018
 H     -3.4485697014     1.5148866881    -4.5586263927
 F     -3.1475799212     2.3414296639    -4.2995494515
          20
Energy: -79.05936326436633 Kcal/mole
 H     -1.4019193943    -1.2996381105    -3.1101620416
 F     -2.3154998258    -1.3727759392    -3.0799850102
 H     -1.8335747594     2.0605931057    -3.3743284331
 F     -1.1170254853     1.7743149933    -2.8788579695
 H      1.0502949189     3.3160432269    -0.2569172091
 F      1.5186356129     3.1457045084     0.5128429583
 H     -0.2033625276     2.9315687576    -2.0951208824
 F      0.2384995612     3.6122423271    -1.6681192592
 H      3.1344975761     2.7732469832     0.4886669061
 F      3.9921193228     2.4677907415     0.3788014243
 H      2.3339545424     0.4636358849    -1.5525992430
 F      1.4697313558     0.6464236123    -1.7987616498
 H     -3.2701079218    -0.6300840610    -4.2132610289
 F     -3.7239128368    -0.0965551493    -4.8051199644
 H      4.0344075280     1.0614353887    -0.4800025552
 F      3.8607171214     0.3251731400    -0.9983060799
 H      0.6537291383    -0.4760738133    -2.7285143966
 F      0.2467194379    -1.1423323049    -3.2094839655
 H     -3.4524248592     1.5167651646    -4.5600987497
 F     -3.1473754140     2.3413300150    -4.2994713464
          20
Energy: -79.05516101539584 Kcal/mole
 H     -1.4007020250    -1.3129105792    -3.1008684285
 F     -2.3155644044    -1.3720718654    -3.0804780149
 H     -1.8276606952     2.0572706543    -3.3846391593
 F     -1.1173392128     1.7744912417    -2.8783110093
 H      1.0501198102     3.3191813651    -0.2561090324
 F      1.5186449020     3.1455380374     0.5128000864
 H     -0.2076162863     2.9342279380    -2.0949269462
 F      0.2387252132     3.6121012638    -1.6681295470
 H      3.1372859577     2.7820030888     0.4856403369
 F      3.9919714056     2.4673262504     0.3789619768
 H      2.3338111913     0.4649053358    -1.5511612520
 F      1.4697389603     0.6463562709    -1.7988379319
 H     -3.2751175313    -0.6279175695    -4.2075227547
 F     -3.7236470886    -0.0966700767    -4.8054243666
 H      4.0309088812     1.0613792787    -0.4787644017
 F      3.8609027165     0.3251761165    -0.9983717611
 H      0.6624428017    -0.4817019789    -2.7282096735
 F      0.2462571982    -1.1420337437    -3.2095001303
 H     -3.4421376287     1.5201502667    -4.5595155905
 F     -3.1319753952     2.3444952897    -4.3042830066
          20
Energy: -79.05932150181641 Kcal/mole
 H     -1.4015540612    -1.3071686424    -3.1158056323
 F     -2.3155192059    -1.3723764619    -3.0796856308
 H     -1.8143905839     2.0603069619    -3.3856604409
 F     -1.1011918986     1.7769276842    -2.8837313420
 H      1.0528268117     3.3235104884    -0.2567627166
 F      1.5185013019     3.1453083874     0.5128347628
 H     -0.1997685171     2.9299729022    -2.0962753432
 F      0.2383089072     3.6123269836    -1.6680580177
 H      3.1370432794     2.7777131326     0.4957544272
 F      3.9919842791     2.4675538226     0.3784254477
 H      2.3333377236     0.4678805180    -1.5473795029
 F      1.4697640766     0.6461984444    -1.7990385449
 H     -3.2678084337    -0.6323324396    -4.2170730707
 F     -3.7240348193    -0.0964358780    -4.8049177444
 H      4.0238320707     1.0646163337    -0.4811023069
 F      3.8612781249     0.3250043982    -0.9982477407
 H      0.6598795752    -0.4792208321    -2.7268190776
 F      0.2382729119    -1.1390360136    -3.2040828912
 H     -3.4410458290     1.5182513320    -4.5546504950
 F     -3.1320333127     2.3445960238    -4.3045410887
          20
Energy: -79.05791452594983 Kcal/mole
 H     -1.4010483202    -1.3123271422    -3.1116817422
 F     -2.3155460343    -1.3721028154    -3.0799043936
 H     -1.8170065905     2.0548494550    -3.3849856178
 F     -1.1010531255     1.7772171924    -2.8837671398
 H      1.0546574256     3.3237533375    -0.2578110826
 F      1.5184041920     3.1452955049     0.5128903762
 H     -0.2057258852     2.9374224422    -2.1019006825
 F      0.2386249318     3.6119318027    -1.6677596064
 H      3.1338470475     2.7730601675     0.4840017104
 F      3.9921538318     2.4678006517     0.3790489022
 H      2.3343368415     0.4622561116    -1.5549824961
 F      1.4697110757     0.6464968061    -1.7986352237
 H     -3.2661051031    -0.6183621681    -4.2160682091
 F     -3.7220839890    -0.0850537772    -4.8064531816
 H      4.0312786179     1.0614260178    -0.4789517713
 F      3.8608831028     0.3251736371    -0.9983618216
 H      0.6493117652    -0.4789849070    -2.7180185312
 F      0.2388335098    -1.1390485289    -3.2045497398
 H     -3.4483449135     1.5227595380    -4.5603049667
 F     -3.1316461131     2.3443568739    -4.3042411320
          20
Energy: -79.05383923359157 Kcal/mole
 H     -1.4015823840    -1.3038732235    -3.1099076518
 F     -2.3155177034    -1.3725512762    -3.0799985050
 H     -1.8175343701     2.0495414988    -3.3959385709
 F     -1.0922925973     1.7751673269    -2.9064161661
 H      1.0459937272     3.3187293777    -0.2536810940
 F      1.5188637812     3.1455620143     0.5126712899
 H     -0.1967524569     2.9361541718    -2.1089547180
 F      0.2381489122     3.6119990815    -1.6673854061
 H      3.1385680972     2.7817961469     0.4959863749
 F      3.9919033910     2.4673372282     0.3784131434
 H      2.3354209409     0.4633083649    -1.5580592457
 F      1.4696535668     0.6464409865    -1.7984720092
 H     -3.2524933927    -0.6365002679    -4.2431813953
 F     -3.6975844496    -0.0969370149    -4.8361859881
 H      4.0346407331     1.0570930970    -0.4739685748
 F      3.8607047504     0.3254034886    -0.9986261687
 H      0.6465177886    -0.4759482234    -2.7198029591
 F      0.2389817238    -1.1392096180    -3.2044550800
 H     -3.4308436164     1.5195657908    -4.5708248210
 F     -3.1325745165     2.3445262948    -4.3036830780
          20
Energy: -79.06274975517883 Kcal/mole
 H     -1.4015855948    -1.3028926118    -3.1076471805
 F     -2.3155175331    -1.3726032954    -3.0801184178
 H     -1.8136649830     2.0527128886    -3.3998502578
 F     -1.0924978594     1.7749990920    -2.9062086601
 H      1.0477235433     3.3159662373    -0.2553635811
 F      1.5187720185     3.1457085925     0.5127605419
 H     -0.1995355741     2.9356345365    -2.1053936193
 F      0.2382965501     3.6120266470    -1.6675743142
 H      3.1388636269     2.7879046934     0.4777098834
 F      3.9938715731     2.4802698602     0.3543761034
 H      2.3324660312     0.4568993583    -1.5524774414
 F      1.4698103179     0.6467809695    -1.7987681111
 H     -3.2596584690    -0.6281817117    -4.2162812271
 F     -3.7062204268    -0.0980287267    -4.8166221555
 H      4.0335734064     1.0711904179    -0.4938730963
 F      3.8607613696     0.3246556583    -0.9975702798
 H      0.6523280800    -0.4755613532    -2.7252877022
 F      0.2386735013    -1.1392301405    -3.2041641271
 H     -3.4342647226     1.5199288616    -4.5680881982
 F     -3.1323930347     2.3445070347    -4.3038282496
          20
Energy: -79.06403883697634 Kcal/mole
 H     -1.4015730576    -1.3042989736    -3.1105889168
 F     -2.3155181982    -1.3725286912    -3.0799623655
 H     -1.8200075334     2.0542725140    -3.3895482269
 F     -1.0921614017     1.7749163574    -2.9067551591
 H      1.0468710806     3.3196675493    -0.2540092564
 F      1.5188172396     3.1455122465     0.5126886981
 H     -0.1889672627     2.9312853439    -2.1090698038
 F      0.2377359256     3.6122573616    -1.6673793011
 H      3.1368778965     2.7846120464     0.4719521597
 F      3.9939769115     2.4804445275     0.3546815373
 H      2.3324273798     0.4598341511    -1.5501098369
 F      1.4698123683     0.6466252855    -1.7988937070
 H     -3.2577576830    -0.6324371286    -4.2214959230
 F     -3.7063212591    -0.0978029867    -4.8163455279
 H      4.0324580579     1.0676944909    -0.4883549905
 F      3.8608205363     0.3248411091    -0.9978630025
 H      0.6543345593    -0.4774817567    -2.7243688506
 F      0.2385670622    -1.1391282676    -3.2042128700
 H     -3.4482995118     1.5167619852    -4.5644559527
 F     -3.1408224820     2.3385654195    -4.2980239886
          20
Energy: -79.06030141027531 Kcal/mole
 H     -1.4011122932    -1.3128864294    -3.1144432340
 F     -2.3155426406    -1.3720731465    -3.0797579028
 H     -1.8144144840     2.0628982485    -3.3928618621
 F     -1.0924581001     1.7744587822    -2.9065793784
 H      1.0430910888     3.3219514616    -0.2511446363
 F      1.5190177595     3.1453910902     0.5125367367
 H     -0.1993022678     2.9338622003    -2.1028773723
 F      0.2382841738     3.6121206653    -1.6677077953
 H      3.1379650805     2.7836601264     0.4819123215
 F      3.9939192389     2.4804950246     0.3541531737
 H      2.3341368250     0.4571425045    -1.5582186528
 F      1.4697216862     0.6467680712    -1.7984635531
 H     -3.2529879882    -0.6303548835    -4.2232478774
 F     -3.7065742804    -0.0979134450    -4.8162525908
 H      4.0272075066     1.0630859681    -0.4799898491
 F      3.8610990659     0.3250855806    -0.9983067540
 H      0.6501717139    -0.4790112574    -2.7187096246
 F      0.2387878915    -1.1390471311    -3.2045130789
 H     -3.4434888492     1.5129216226    -4.5580050904
 F     -3.1410776766     2.3387691419    -4.2983661919
          20
Energy: -79.06101198595051 Kcal/mole
 H     -1.4015335383    -1.3028959600    -3.1058667453
 F     -2.3155202946    -1.3726031178    -3.0802128657
 H     -1.8194477129     2.0642864420    -3.3844599488
 F     -1.0921910989     1.7743851417    -2.9070250805
 H      1.0415565978     3.3244541905    -0.2496021364
 F      1.5190991607     3.1452583262     0.5124549106
 H     -0.1992284362     2.9345665695    -2.1040471863
 F      0.2382802572     3.6120833001    -1.6676457394
 H      3.1321916157     2.7925267623     0.4640962882
 F      3.9895033034     2.4900148322     0.3441287834
 H      2.3309519303     0.4570143166    -1.5471511133
 F      1.4698906375     0.6467748712    -1.7990506605
 H     -3.2574729800    -0.6308977771    -4.2203304570
 F     -3.7063363619    -0.0978846457    -4.8164073532
 H      4.0324866938     1.0706465696    -0.4926972051
 F      3.8608190172     0.3246845082    -0.9976326581
 H      0.6516936049    -0.4819595533    -2.7160124983
 F      0.2387071587    -1.1388907308    -3.2046561552
 H     -3.4428193328     1.5128613886    -4.5585916973
 F     -3.1411131929     2.3387723372    -4.2983350738
          20
Energy: -79.06596344706922 Kcal/mole
 H     -1.4011360775    -1.3077686078    -3.1044122435
 F     -2.3155413789    -1.3723446351    -3.0802900237
 H     -1.8143009742     2.0539821734    -3.3982020062
 F     -1.0924641215     1.7749317593    -2.9062960961
 H      1.0422106784     3.3207256020    -0.2508777588
 F      1.5190644632     3.1454561192     0.5125225794
 H     -0.2010636038     2.9363277682    -2.1049328853
 F      0.2383776086     3.6119898726    -1.6675987551
 H      3.1299229820     2.7851171737     0.4662837660
 F      3.9896236492     2.4904078937     0.3440127427
 H      2.3321215610     0.4653389204    -1.5450352199
 F      1.4698285913     0.6463332702    -1.7991629037
 H     -3.2528851035    -0.6280692102    -4.2212824128
 F     -3.7065797382    -0.0980346947    -4.8163568542
 H      4.0341999387     1.0700604987    -0.4924173469
 F      3.8607281335     0.3247155979    -0.9976475039
 H      0.6530590958    -0.4758743460    -2.7254861212
 F      0.2386347226    -1.1392135370    -3.2041536014
 H     -3.4433074771     1.5131826616    -4.5590442474
 F     -3.1410872979     2.3387552944    -4.2983110670
          20
Energy: -79.05840586830625 Kcal/mole
 H     -1.4012861119    -1.3078306520    -3.1096632856
 F     -2.3155334200    -1.3723413438    -3.0800114680
 H     -1.8131361832     2.0552130891    -3.3992088161
 F     -1.0925259110     1.7748664621    -2.9062426871
 H      1.0402636400     3.3286144087    -0.2477982786
 F      1.5191677491     3.1450376363     0.5123592201
 H     -0.1998959430     2.9322422255    -2.0997399842
 F      0.2383156669     3.6122066012    -1.6678742265
 H      3.1324911607     2.7913120780     0.4691795857
 F      3.9894874133     2.4900792684     0.3438591262
 H      2.3304109591     0.4647818151    -1.5396934992
 F      1.4699193347     0.6463628234    -1.7994462696
 H     -3.2580107914    -0.6361468681    -4.2246603708
 F     -3.7063078323    -0.0976061936    -4.8161776613
 H      4.0351718373     1.0709871972    -0.4941230813
 F      3.8606765765     0.3246664386    -0.9975570187
 H      0.6520299060    -0.4753200681    -2.7253647011
 F      0.2386893188    -1.1392429401    -3.2041600425
 H     -3.4464884420     1.5101579521    -4.5453629524
 F     -3.1409185551     2.3389157482    -4.2990368281
          20
Energy: -79.06338418169034 Kcal/mole
 H     -1.4015904963    -1.3055381941    -3.1136794385
 F     -2.3155172731    -1.3724629534    -3.0797984204
 H     -1.8092159144     2.0593257947    -3.4025541024
 F     -1.0927338722     1.7746482926    -2.9060652274
 H      1.0445269501     3.3251491835    -0.2512916778
 F      1.5189415903     3.1452214584     0.5125445369
 H     -0.1992747326     2.9349854949    -2.1046505039
 F      0.2382827131     3.6120610771    -1.6676137348
 H      3.1309349554     2.7941013129     0.4726555477
 F      3.9883766440     2.4954501164     0.3442413211
 H      2.3335620990     0.4634386129    -1.5513715793
 F      1.4697521740     0.6464340772    -1.7988267745
 H     -3.2664580946    -0.6273568597    -4.2105647354
 F     -3.7058597224    -0.0980724832    -4.8169254022
 H      4.0311778032     1.0726509944    -0.4952260736
 F      3.8608884508     0.3245781780    -0.9974985075
 H      0.6516946587    -0.4774279734    -2.7221685951
 F      0.2387071028    -1.1391311206    -3.2043295885
 H     -3.4310140140     1.5136634353    -4.5681998498
 F     -3.1342346233     2.3424759389    -4.3115272430
          20
Energy: -79.0631259101647 Kcal/mole
 H     -1.4048545782    -1.3131390594    -3.1081580223
 F     -2.3191199657    -1.3792444916    -3.0829018711
 H     -1.8112802783     2.0572178880    -3.4007710547
 F     -1.0926243624     1.7747601122    -2.9061598140
 H      1.0427509480     3.3210692377    -0.2511360109
 F      1.5190358031     3.1454378901     0.5125362791
 H     -0.1925324801     2.9286559573    -2.1014796603
 F      0.2379250522     3.6123968445    -1.6677819407
 H      3.1297713966     2.7927255008     0.4679831686
 F      3.9884383681     2.4955231001     0.3444891800
 H      2.3331880027     0.4588652054    -1.5535022336
 F      1.4697720190     0.6466766859    -1.7987137482
 H     -3.2532657788    -0.6264720597    -4.2195745591
 F     -3.7065595442    -0.0981194198    -4.8164474519
 H      4.0260503582     1.0727116024    -0.4936082515
 F      3.8611604499     0.3245749629    -0.9975843292
 H      0.6594572990    -0.4785941777    -2.7273132926
 F      0.2382953127    -1.1390692562    -3.2040566742
 H     -3.4392915453     1.5188467852    -4.5750736811
 F     -3.1337955194     2.3422009742    -4.3111626022
          20
Energy: -79.06603239973293 Kcal/mole