          20
Energy: -59.392062046885044 Kcal/mole
 H     -0.7404317729    -6.0114115945     4.9604027732
 F     -1.0875651412    -5.8599742182     5.7955399750
 H     -2.4098996471    -1.9861613771     1.8273110540
 F     -2.3290579049    -2.2684505671     0.9585956657
 H     -1.7672569148    -0.0837396617    -1.5353497178
 F     -2.6364004522     0.0514722872    -1.7945720936
 H     -0.3150003977    -5.0374777560     2.5833251000
 F     -0.0986873348    -5.5456739485     3.3153321278
 H     -1.3508122631    -3.6869702436     1.1261746465
 F     -1.0142291933    -4.5370776845     1.0560449388
 H     -3.1158490941    -1.3133709287    -2.9063785788
 F     -3.4372269484    -2.1562791829    -3.0710326095
 H      0.0364685021    -1.0480459590    -2.2666941419
 F     -0.1222881275    -0.2983673958    -1.7630401094
 H     -1.4561932415    -3.1360733897    -3.6083874293
 F     -0.7896478602    -2.5077403027    -3.6508584365
 H     -2.6129346543    -2.2022232147     4.2851613860
 F     -2.2849741476    -1.7089024478     3.5851860099
 H     -2.4038510110    -4.9505559041     5.3037032544
 F     -2.6896503033    -4.1639647907     4.9288937230
          20
Energy: -70.08344997120749 Kcal/mole
 H     -0.7180635256    -0.9373029153     2.1662940023
 F     -0.6187975110    -0.5852104434     3.0071662576
 H     -4.9086485013    -5.2768311918     5.5063854200
 F     -4.2481836097    -5.8709443247     5.2789987179
 H     -5.6075331132    -3.2531371798     5.3758692812
 F     -6.0195104738    -4.0116679597     5.6853764869
 H     -1.4651910752    -4.8735435460     2.6624481500
 F     -1.0926724488    -4.7293694623     1.8370193483
 H     -3.0156112372    -4.9545311339     4.4449125445
 F     -2.2888921793    -4.5265670235     4.0848915297
 H     -3.4592618599     0.1930024929     6.5208826527
 F     -4.3633340161     0.1327572206     6.3797690688
 H     -1.0936196808    -2.9403463719     1.2782102490
 F     -0.8850811911    -2.1027827037     0.9685526964
 H     -4.7422678920    -1.1969094506     5.3252607417
 F     -4.8901556246    -1.8973822521     4.7522371184
 H     -1.5229952235    -0.9304952253     6.6320020869
 F     -2.0413742780    -0.3863999837     7.1574852208
 H     -1.2362278105    -1.2580977955     4.3893885870
 F     -1.5073138835    -1.8428156046     5.0416971220
          20
Energy: -59.00736938542315 Kcal/mole
 H      0.1513523338    -4.8188141874     4.1210302459
 F     -0.1451095545    -4.1462153452     3.5727509866
 H     -6.0996331015    -4.2762055313     7.2927576428
 F     -5.4977274017    -4.9262605273     7.0560573455
 H     -6.9164307900    -1.8156782742     6.4974105305
 F     -6.9378301572    -2.4960534415     7.1118376611
 H     -1.6021487088    -5.1746140475     6.8661153403
 F     -1.4418733063    -6.0235994803     6.5588295932
 H     -3.9220435027    -4.3842053856     7.2286428738
 F     -3.0501980556    -4.1045760123     7.2794555690
 H     -2.0140238000     0.6959088170     4.0129231012
 F     -1.9109480232     1.6067002201     4.0398192792
 H     -0.0108146895    -6.1695518627     5.6107930321
 F      0.6994883646    -5.8701234843     5.1141027688
 H     -6.6068531080     0.1752550461     5.2139850343
 F     -6.6489023885    -0.1669848391     6.0636865813
 H     -1.6366613241    -1.2904410429     4.8346731826
 F     -2.3482972126    -0.8165523628     4.5031722309
 H     -0.6543021428    -3.1383595255     4.7963798233
 F     -0.9293483189    -2.6562912992     5.5263447719
          20
Energy: -68.92074888593986 Kcal/mole
 H      2.9802723577    -2.7490655709     4.8597038061
 F      3.3253752021    -1.9029419820     4.7831015931
 H     -1.1006547230    -2.1878755474     5.0417400669
 F     -1.6650719674    -2.6869156762     5.5645030381
 H     -0.5857347048    -0.3802736560     3.5367013120
 F     -0.2311821660    -0.8670393066     4.2282508031
 H     -0.1456125260    -5.9915724669     6.4839006010
 F      0.5545178807    -6.2762103718     5.9645859789
 H     -1.7768543287    -4.4051601820     6.2017742566
 F     -1.6355333523    -5.1395979717     6.7323574401
 H      0.7296813020     2.4177401054     3.9492895496
 F     -0.1094696640     2.4794566338     4.3138519261
 H      1.7420542040    -5.1344708599     5.5155105872
 F      2.2798143016    -4.4938721031     5.1395633699
 H     -1.1666945341     1.6473017710     3.5327348064
 F     -1.5063553497     0.9731010841     3.0121841709
 H      3.2147227181     1.6937687865     3.8639938051
 F      2.5451940557     2.3200393784     3.8438563794
 H      3.9424949697    -0.2172177168     4.4172301989
 F      4.3736339471     0.5367603342     4.1230784003
          20
Energy: -62.08984932137889 Kcal/mole
 H      3.8196277058    -3.3924339928     6.1538375004
 F      4.1764500374    -2.5510160294     6.2285545301
 H     -2.8574750400    -5.2521648433     4.1931392622
 F     -3.2463773774    -5.8991635370     4.7137510775
 H     -2.0935704105    -3.3255208578     2.8414058518
 F     -2.3389255790    -3.6814649937     3.6501045679
 H     -0.2140328910    -4.7072929052     6.5845135298
 F      0.3922505323    -4.1247655034     6.2184927150
 H     -1.9631716462    -5.9766280228     5.9363417343
 F     -1.3007404144    -5.8838405077     6.5636090937
 H      0.4608683265    -3.9281143184     1.2862792476
 F     -0.3594312310    -4.2277354859     1.5659662009
 H      2.0162468619    -4.7057393436     5.6098775652
 F      2.9096884496    -4.9117536375     5.6243427006
 H     -2.0160171384    -3.1951076457     0.8511851875
 F     -2.6158181894    -2.6780144918     1.3135079852
 H      2.8136397463    -2.4733170815     1.9277459948
 F      2.1872184329    -2.6630613570     1.2854980302
 H      4.0896015982    -2.2250055499     4.6645922124
 F      3.8323185371    -2.1364646835     3.7888896708
          20
Energy: -61.70932248394088 Kcal/mole
 H      2.6202395024    -4.4531637387     0.2197201894
 F      2.1101524049    -4.3541577745    -0.5358577166
 H     -4.8885953674    -3.0275072029     1.4697312199
 F     -5.4259715806    -3.7705378627     1.4743403635
 H     -3.1177331426    -2.0443560181     0.0017436254
 F     -3.8504797841    -1.8866863576     0.5300537970
 H      0.4815034245    -7.2816923610     1.4631237373
 F      0.7483893019    -6.8155919024     2.2063675002
 H     -5.1894675905    -5.3430051118     0.5204265439
 F     -5.0538427104    -6.2454033353     0.6108275287
 H     -3.4652050233    -6.0079862548     0.7327661636
 F     -2.5943909233    -5.7207650724     0.7240600935
 H      3.1602525618    -6.1110629318     1.8651688618
 F      3.3726634751    -5.3602498834     1.3834527937
 H     -1.4122188080    -3.1420319659    -1.0440457227
 F     -1.8799757269    -2.3791762404    -0.8436870270
 H     -1.2996343065    -6.8915528782     0.3863809534
 F     -0.5226598580    -7.3330989037     0.1808649839
 H      0.5395592349    -4.7613596040    -1.3542488205
 F     -0.3719498395    -4.7679100611    -1.4542353128
          20
Energy: -60.66721802610547 Kcal/mole
 H      1.6949792480    -4.0187079857    -1.5624678328
 F      1.8211887537    -3.1934712534    -1.9418680126
 H     -5.3887675413    -2.4436770141    -2.1314378809
 F     -5.8973030999    -3.0999787326    -2.5207303673
 H     -3.8401012680    -1.7806567765    -1.1130983847
 F     -4.5705579708    -1.3029916858    -1.3944488181
 H     -2.0668265020    -6.1024150899    -2.1517555679
 F     -1.5626396767    -5.5336472148    -1.6387372940
 H     -5.5010917869    -2.6831185112    -4.3572079211
 F     -4.6453127165    -2.7932193725    -4.6677058807
 H     -3.4825098718    -3.9663771897    -4.6079028276
 F     -3.0483481035    -4.7661976084    -4.7205076974
 H      0.5411642332    -5.7173978568    -0.6917429851
 F      1.4229639912    -5.4858530613    -0.7902579303
 H     -2.0592279993    -2.7765674581    -1.5976652841
 F     -2.4507131120    -2.6307223599    -0.7813579806
 H     -2.9738210548    -6.3169891165    -3.7852149859
 F     -3.2003127479    -6.9095493541    -3.1230496910
 H      0.2663576418    -2.2310597565    -2.4759981793
 F     -0.5746773822    -1.8662638119    -2.4977469067
          20
Energy: -67.32343592670557 Kcal/mole
 H      1.2812148662    -5.8227597404    -4.9691924418
 F      1.4534542901    -5.0997858841    -4.4320412675
 H     -3.5890684869    -3.5495175972    -2.7274151635
 F     -3.0089909077    -3.1606123717    -3.3216808681
 H     -3.5249625957    -4.4533189859    -0.9950019881
 F     -4.0831815872    -4.7097063463    -1.6758441717
 H     -1.1080707333    -7.4481849577    -2.9946666680
 F     -0.3537576127    -6.9698009648    -2.7871830029
 H     -2.5537930360    -4.1348991100    -4.7063848693
 F     -2.4266335578    -4.4921073833    -5.5413230207
 H     -2.1736981721    -6.1545072468    -5.5529789454
 F     -2.0342234267    -7.0608367017    -5.5513313353
 H      2.0410202259    -5.6907183938    -2.9516562426
 F      2.2519673128    -5.8016564502    -2.0661715876
 H     -1.2169503414    -4.5631414371    -0.3212605409
 F     -1.9886332241    -4.1136628912    -0.1130213386
 H     -0.2217998104    -7.1598583528    -5.8655004072
 F      0.6803481234    -7.0461549921    -5.9842002443
 H      0.9359696148    -5.7110733614    -0.8063472740
 F      0.2019402428    -5.4689211306    -0.3129385406
          20
Energy: -70.73696326986835 Kcal/mole
 H      0.8465019759    -3.8453381681    -6.0176770289
 F      1.0085101998    -2.9509711041    -6.1391261548
 H     -0.0033534166    -4.8997155337    -1.6715383632
 F     -0.0618314661    -5.7361209948    -1.3001959036
 H     -3.9998692014    -5.9543428711    -2.4815701681
 F     -4.5676243796    -6.0716284681    -3.1920539092
 H     -1.5867055991    -6.0878709407    -1.3768645502
 F     -2.5008081571    -6.0319104445    -1.4234900394
 H     -3.7532266225    -6.6652226918    -4.7013838452
 F     -2.9871636634    -6.9720977103    -5.1012141411
 H     -1.5769481279    -6.8149654396    -4.2657883391
 F     -0.7889695382    -6.5290921621    -3.8939614823
 H      1.6869143006    -1.6251708803    -5.5178179245
 F      2.0365844238    -0.9394326664    -5.0194376411
 H      0.3793156206    -2.8247703208    -2.6411537958
 F     -0.0785925444    -3.6190673600    -2.6585125393
 H      0.5920960963    -5.8854961838    -5.1265011752
 F      0.8855487138    -5.5879871890    -5.9427504994
 H      1.7912911932    -1.0457326059    -3.3584805245
 F      1.6049866833    -1.4276694934    -2.5458897028
          20
Energy: -65.45904397282767 Kcal/mole
 H     -0.2601710078    -0.9776136411    -4.6690032093
 F      0.4254146632    -0.3732855937    -4.7441623668
 H     -0.6153879091     2.4582331780    -0.7976659259
 F     -0.4566567936     1.8568834469    -0.1238173273
 H     -0.6475658718    -2.0063661728     0.1722196356
 F     -1.2738412227    -2.4853626050     0.6404403130
 H     -0.2873374295     0.2469639124    -0.5274784265
 F     -0.1326837416    -0.5923389892    -0.8629510428
 H     -1.7024298718    -4.0043601429    -0.0600942281
 F     -1.6908027117    -4.8520837523    -0.4095487905
 H     -1.5459196884    -4.7472500850    -2.0147452409
 F     -1.2591407361    -4.5019569296    -2.8504952635
 H      1.1240125023     1.2652569604    -4.1973194044
 F      1.1760760622     2.1270919101    -3.8884198977
 H     -2.0455902277     1.4077337722     0.8750353874
 F     -2.6113118558     0.6923812128     0.9705275612
 H     -1.2817702792    -2.9817016904    -3.8803478972
 F     -1.2056538596    -2.2136343221    -4.3754921272
 H     -0.3246420159     3.1901843242    -3.0477764975
 F     -0.8894159610     3.3417769485    -2.3414203075
          20
Energy: -70.00570562642021 Kcal/mole
 H     -0.7812682725    -2.0385265014    -5.5573127459
 F     -0.0692912237    -2.3684103490    -6.0318170443
 H     -0.1395565948     2.6954128491    -3.7934946489
 F      0.4940462038     3.3285011954    -3.5969351428
 H      0.5008248024     4.2861305541     0.0220209060
 F      0.7637338962     3.8498936189     0.7845595246
 H      0.4688349109     4.4580162342    -2.1727964862
 F      0.2391698005     4.8869017193    -1.3954933422
 H     -0.0279410682     2.4599849601     1.0262319018
 F     -0.4694598314     1.6563924664     1.0124737833
 H     -2.6713242202    -0.4769688270    -1.7179191509
 F     -3.1287230566    -0.5301203503    -2.5109199202
 H      0.6075783007    -0.8378642330    -5.7765049705
 F      0.7329293168    -0.0055637946    -5.4125652736
 H     -0.9200998942     0.1768466427    -0.1442844129
 F     -1.1813699091    -0.5169227804    -0.6840167233
 H     -2.5793556970    -0.7726543257    -4.2176183443
 F     -2.2455034867    -0.9910870339    -5.0432810197
 H     -0.8128083863     0.9421996855    -4.7200787923
 F     -1.2500289676     1.6182386845    -4.2811044935
          20
Energy: -68.60584302074615 Kcal/mole
 H     -0.0567638444    -2.8409702025    -3.4808059706
 F      0.7657339622    -2.5664605372    -3.7791862677
 H     -0.4188336157     1.5075993700    -3.2870029847
 F     -1.1153396896     1.5730153217    -2.6941378715
 H      0.6787523560     4.2526839602    -0.5380117837
 F      1.4214792582     4.2348347011    -4.923397E-40
 H     -1.0131104475     3.0683991363    -1.9253176236
 F     -0.7941819037     3.7623839150    -1.3673351690
 H      1.4047529606     3.0195895888     1.3913248060
 F      0.9463790649     2.4316341027     1.9252636769
 H     -1.1609442037    -0.6506165598    -0.5000472057
 F     -1.9747041298    -1.0292133179    -0.6880585811
 H      1.0729200315    -1.7230673112    -5.4386946752
 F      1.0647929669    -0.9888436185    -5.9880019844
 H      0.4978857206     1.2388130670     0.6514726811
 F      0.3062046482     0.7102845623    -0.0729615715
 H     -1.9332540700    -2.2260498190    -1.9689606021
 F     -1.5847357636    -2.8460608468    -2.5477613584
 H      0.9362025914     0.7203156245    -5.4057817846
 F      0.5317669130     1.2958417833    -4.8174872814
          20
Energy: -68.93933334472857 Kcal/mole
 H     -0.1389184827     1.5119845939    -5.4521755362
 F     -1.0407703332     1.6417002736    -5.5557423368
 H     -2.4757217692     3.1168794289    -1.4638775888
 F     -1.8892730934     3.0968502148    -0.7592033511
 H      0.2999807270     3.8466967641     2.1637380665
 F      0.3850569284     3.3520859097     2.9312086801
 H     -0.8857065388     4.0356144457     0.1457802426
 F     -0.4532745991     4.5413359249     0.7767615442
 H      1.2315358609     1.8471109085     2.6805574077
 F      1.5853504568     1.0294880636     2.4633084373
 H      2.1951059372     0.5868321297    -1.2970538337
 F      1.4806365213     0.4674134039    -1.8593363443
 H     -1.9617519800     0.7703204421    -4.3148118472
 F     -2.3998482088     0.3794941369    -3.6103861994
 H      2.5285580063     0.9663355075     0.9733782174
 F      3.1223153471     0.9542921577     0.2746678497
 H      1.4295085698     0.9660886045    -3.5470435320
 F      1.3225186337     1.1655858741    -4.4356621189
 H     -3.4132874331     1.5930373686    -2.5976932354
 F     -3.8683926680     2.3862169565    -2.5296170540
          20
Energy: -69.83172958372322 Kcal/mole
 H     -0.1501076104     1.5194697830    -3.5892457572
 F     -1.0059607385     1.7943472444    -3.7704826310
 H     -0.9238182335     4.0085783327     0.3432447344
 F     -0.4596078855     3.2231382234     0.4353402695
 H     -0.4021051445     0.2756161783     2.0219862036
 F      0.1960895845     0.1067458728     2.6961782282
 H     -1.3511041954     1.6962074555     0.5238497519
 F     -1.7455205423     0.8716988060     0.5980806902
 H      1.5958922194     1.2153098258     3.0741264440
 F      2.1714656529     1.9234874236     3.1640637142
 H      3.4457499120     2.7114545861    -0.3501449546
 F      3.1969410772     2.3568209314    -1.1583640676
 H     -1.7428691623     2.7993090543    -2.7126771756
 F     -2.3218931907     3.3139834446    -2.2220342846
 H      3.3448781622     2.6699623296     1.9910438460
 F      3.8603583285     3.0246379465     1.3206899058
 H      2.2496236713     1.6919720092    -2.3900275940
 F      1.5284157550     1.5108008363    -2.9266141644
 H     -2.2424502507     4.5726044343    -1.0004938975
 F     -2.0436519553     5.0012252551    -0.2145852325
          20
Energy: -67.94509748113687 Kcal/mole
 H     -2.2005315976     2.3688376453    -1.5932893423
 F     -2.3426961644     1.9026218042    -0.8165519186
 H     -3.4785413692     3.8035823688     3.0022849541
 F     -2.9690523166     3.2528181581     3.5295123146
 H      0.2917951565     1.6910646757     2.7063170165
 F      1.1670729567     1.8901877889     2.8937410231
 H     -2.0914644496     1.7507866729     3.4102913823
 F     -1.4176390123     1.2167356853     3.0914845085
 H      2.4630234119     2.1562889582     1.9244790554
 F      3.0039475358     2.8056486005     1.5686389972
 H      0.6955849866     4.4740490966    -1.1959052076
 F      0.4004901947     4.3467143239    -2.0547380897
 H     -3.8621710903     1.6613244044     0.3101147816
 F     -4.4270011703     1.9715984260     0.9624843182
 H      2.0195605133     3.8667982897     0.7940149916
 F      1.4596311989     4.4768238600     0.4000137652
 H     -0.9353572105     3.5023235594    -2.9429278231
 F     -1.5890159545     2.8901567251    -3.1400851543
 H     -4.7358485863     3.6280362005     1.3881279854
 F     -4.4712911396     4.3932891544     1.8185769070
          20
Energy: -68.42489407742961 Kcal/mole
 H     -1.1742614281     3.7185116234    -0.5116645261
 F     -1.7298584139     4.1125053609     0.1023142391
 H     -3.8026791144    -1.3320715088     2.9705927543
 F     -3.5853615104    -1.8369479883     3.7045967049
 H     -1.1596415275     0.6538441367     5.8310695246
 F     -0.8897831846     1.2850764965     6.4390260878
 H     -2.2454013274    -0.8991783060     4.2700605775
 F     -1.5796504233    -0.3389044436     4.5594702055
 H     -0.4846029887     2.8409412519     5.8913616370
 F     -0.3380882939     3.5821251130     5.3716800726
 H      0.5071461690     4.3192335602     1.2195427362
 F      1.1498440017     4.5344859548     0.6018900000
 H     -2.6683859103     2.7629660010     0.2591787749
 F     -3.0559235857     1.9936958483     0.5737053751
 H     -0.1039483639     3.8531413804     3.6870038533
 F     -0.2223665519     3.8784343348     2.7780338873
 H      0.7423020023     3.4141782803    -0.7705873804
 F      0.1401332561     3.1676461992    -1.4167326691
 H     -4.2161525019     0.5268497509     1.5556436884
 F     -4.3422367046    -0.3486492912     1.7974973652
          20
Energy: -69.94704546527083 Kcal/mole
 H      1.9913235862     4.3552544204    -2.7541437953
 F      1.9391629270     5.1625113058    -2.3222820274
 H     -1.5140406332     3.2482066219     2.3209032090
 F     -2.2597874390     3.0568420858     2.8190300162
 H     -1.2334395375    -0.0342049415     4.9881833569
 F     -0.5268013839    -0.6181653256     5.0114597309
 H     -2.4486187896     1.7676277454     4.0440961128
 F     -2.3621872424     1.2410610138     4.7898481257
 H      0.5040584624    -0.6945655670     3.6568647730
 F      0.8729063999    -0.5884022996     2.8240565360
 H      0.7750884039     1.1223031313    -1.0136592844
 F      0.8010645647     1.1290074408    -1.9302667747
 H      2.2215544860     4.7728091035    -0.5400417286
 F      1.8595201450     4.3710328063     0.2004958754
 H      0.5816485877     0.4179000349     1.6316798344
 F      0.5182045861     0.9798205975     0.9098009387
 H      1.8066887627     2.0217725636    -3.0996288095
 F      2.3515828089     2.6989455954    -3.3918892473
 H      0.6603185493     4.5696561630     1.4070422709
 F     -0.0898779996     4.4046564227     1.9079107404
          20
Energy: -68.48405172022066 Kcal/mole
 H      1.8974927321     3.4261061999    -2.1157164874
 F      2.3532283171     3.9533260979    -1.5197020113
 H     -0.1635152580     5.1809629554     2.3047260250
 F     -0.9636057504     5.2872819002     1.8694784107
 H     -5.1809367645     4.6389511682     2.5452049506
 F     -5.7276964842     4.3252431682     1.8792243956
 H     -2.6305409924     5.1222518638     2.8250539110
 F     -3.4359125130     5.1228992598     3.2635345773
 H     -5.3173092147     3.2374739918     0.6248547839
 F     -5.0279829392     2.7155356183    -0.0713920406
 H     -1.7773468442     3.6164930735    -1.2139197212
 F     -1.3932125576     4.0784987137    -1.9066538970
 H      2.0009581248     4.3636035565     0.1331577875
 F      1.9538411758     4.3750835277     1.0488745578
 H     -3.3351785652     2.8419553835     0.0791142440
 F     -2.4271491004     2.7886660856    -0.0372117708
 H     -0.0940216254     3.0898435142    -2.6324741218
 F      0.6705214398     2.8292778117    -3.0666036140
 H      1.5202302611     4.4560235766     3.0075732491
 F      0.9098074194     4.7836864144     3.6083311196
          20
Energy: -66.76847638923036 Kcal/mole
 H      2.1491194330     6.2596400022    -0.9681930763
 F      2.5507380939     6.2947714920    -0.1445686293
 H      0.3358597753     5.7548314402     4.4046127914
 F     -0.4573631791     5.5808486602     3.9786828241
 H     -0.9316289968     2.6011788050     3.2341409093
 F     -0.1163676417     2.4163380193     2.8572167700
 H     -1.4275627846     4.2730326832     4.3509307917
 F     -2.0606105910     3.6097252334     4.3381753323
 H     -0.4777850645     3.4245640519     1.4145844229
 F     -0.8561229946     3.9394267207     0.7568110250
 H     -2.0758222611     4.8904906649    -2.5843698377
 F     -1.4037625760     5.2766121001    -3.0744055681
 H      2.8038019291     5.2860576443     1.5110376629
 F      2.8034979008     4.9223713518     2.3528340683
 H     -2.2048208391     4.0710334131    -0.5000131208
 F     -2.8092276098     3.8080859474    -1.1375396581
 H      0.3600844205     5.4130242868    -2.4967758456
 F      1.2307528422     5.5859181815    -2.2667036817
 H      2.3436265343     5.6193005978     3.9382997508
 F      1.9668358433     6.1161568848     4.6106475813
          20
Energy: -70.5262438405617 Kcal/mole
 H      1.8790284590     7.2572659463    -0.5411472174
 F      2.0825515099     7.1585141023     0.3475121330
 H      0.8960329293     3.4608144953     4.1327478754
 F      0.2427701630     2.8213176137     4.0607722088
 H     -3.2240958819     3.8480179464     2.6926612239
 F     -3.4194497700     4.4469850786     2.0263548132
 H     -1.5302123301     2.6903001557     3.8793912157
 F     -2.4410776497     2.7076104682     3.7749224511
 H     -2.7563605251     5.2683206096     0.5369247901
 F     -2.5460020041     5.5687376012    -0.3035440814
 H     -0.1794294997     5.1493510232    -3.4696823384
 F      0.1675175306     5.8004075770    -4.0143309608
 H      2.1118556018     6.7758612977     1.9820647408
 F      2.2046247063     6.5167120056     2.8567787155
 H     -1.7242399011     4.7454504248    -1.7380747068
 F     -1.1462505718     4.2961774992    -2.2903166588
 H      0.9494677033     6.7230180758    -3.0209729112
 F      1.1816599391     7.0690015275    -2.2041062043
 H      2.1260825894     5.3632500122     4.2348679237
 F      1.7599501464     4.7557333800     4.8160387901
          20
Energy: -69.17377506247632 Kcal/mole
 H      2.4667387412     4.6908855634    -0.0471052242
 F      2.0490510305     5.4607224414     0.2245142846
 H     -1.2618622492     6.2393475267     4.7085891529
 F     -2.1708141193     6.3174351268     4.8013136077
 H     -5.0005495702     4.5309433089     3.2858723756
 F     -4.9902121904     4.4660723710     2.3712282372
 H     -3.7331453883     5.0795015205     5.1520587299
 F     -4.4636003328     4.5422957102     5.0151847310
 H     -3.0677438603     4.6592877480     1.9603953027
 F     -2.1604023322     4.5423095925     1.8976540687
 H      0.2680099574     2.1742187582    -0.8624582943
 F      0.8600692707     2.2884398881    -1.5533333213
 H      2.0252018095     5.4513991033     2.0116157360
 F      1.8496724165     5.2710362727     2.8934023777
 H     -1.0275370362     3.4904756068     1.1476634161
 F     -0.3246850373     3.0855503908     0.7199676864
 H      2.2874504491     3.0068519681    -1.2563255920
 F      3.0599777015     3.3664572251    -0.9175414373
 H      0.9254546160     6.0070025316     4.0101598437
 F      0.4478503982     6.5824705241     4.5408384665
          20
Energy: -69.48737059230893 Kcal/mole
 H      4.9561933272     5.9862389091    -0.1158983576
 F      5.5839103633     6.2671446936     0.4906923305
 H      0.7076454219     7.3399626140     3.0520956648
 F     -0.1641758553     7.2660711455     2.7775838955
 H     -3.9298254263     6.7231759539     3.2127804722
 F     -4.3789696929     6.8877312865     2.4304250732
 H     -1.5560524272     6.5969082227     3.4061210440
 F     -2.3149049383     6.6367147237     3.9193922286
 H     -3.9428837046     7.0342338774     0.8227402140
 F     -3.4282262485     6.8677396172     0.0822698472
 H      0.1839665905     5.3225014755    -0.8287534989
 F      0.8367383017     4.9203609603    -1.3318052847
 H      4.8623438657     6.1205372118     1.9369283666
 F      4.3715854669     6.2337869805     2.7032309726
 H     -1.9103775692     6.1690226208    -0.0688529986
 F     -1.1020656380     5.8027543414     0.1621629521
 H      2.4503355308     5.0273446695    -0.7457724352
 F      3.3048770053     5.1433904439    -0.4340333670
 H      3.0837792176     7.1338432114     3.1488246370
 F      2.2368053792     7.4393305037     3.3226113777
          20
Energy: -72.61950175474101 Kcal/mole
 H      3.1960514654     3.3220287279     1.2192634608
 F      3.5345818795     2.9830941746     2.0011902651
 H      0.6168973413     6.7204996392     4.7423449943
 F      0.3132294278     7.1884265924     4.0145269093
 H     -3.0679001799     6.4398713792     3.3230907797
 F     -3.4311503391     6.0522412175     2.5756409958
 H     -1.2130240207     7.4352314344     4.1609922643
 F     -2.1226349366     7.3475592413     4.2372193474
 H     -3.2425080917     6.7580049699     1.1440717712
 F     -3.1636933843     7.0798966595     0.2890495597
 H     -0.5694028614     4.2293586581    -0.7158488903
 F     -0.0928435513     3.5497833427    -0.3260314783
 H      3.3616277386     3.5070457005     3.6506972411
 F      3.0921490084     4.0758959053     4.3175402949
 H     -1.9672549308     6.2179563096    -0.7828721222
 F     -1.2649938539     5.7273694021    -1.1100461830
 H      1.6097744495     3.9702878554    -0.2903618692
 F      2.5167322463     3.9532341762    -0.1561019466
 H      1.9587225527     5.1013518406     5.2908784492
 F      1.4529599194     5.7151583620     5.7473154252
          20
Energy: -67.12981132553493 Kcal/mole
 H      4.0171400465     2.9915104505     1.5232721150
 F      4.5179953979     3.7587132284     1.5611246530
 H      0.2301388633     6.5347308820     4.2293844996
 F     -0.6731467038     6.6927051798     4.2322664120
 H     -2.3207700945     4.9430613112     1.0071167220
 F     -2.2511750171     4.2766170238     0.3810995201
 H     -1.7946629849     6.5454251098     2.8565596397
 F     -1.9013915575     6.4632446305     1.9495070610
 H     -2.3150136252     3.3437862528    -1.3712935120
 F     -1.7365581377     3.1268205872    -2.0489395472
 H      0.2570867998     0.7287688213    -0.2370160624
 F      0.2178515163     0.6146493180     0.6720088721
 H      3.8472751002     5.1251539554     2.2801364305
 F      3.4618411806     5.9297009641     2.4923481277
 H     -0.4306872819     2.2116431603    -1.6920581148
 F      0.1635120176     1.5152348618    -1.6388446370
 H      1.5107581746     1.4905275139     1.2506660876
 F      2.1647997084     2.1327838220     1.2256559570
 H      2.4493045699     6.4051087905     3.6651147442
 F      1.8621585967     6.5581790397     4.3526597282
          20
Energy: -71.51493011178863 Kcal/mole
 H     -0.3084891861     4.1013537024     7.2879483597
 F     -1.1485206707     4.4150827617     7.0960885614
 H      2.4232431338     4.4225172623     3.1062565101
 F      3.0405819402     4.5949739688     2.4504817908
 H      2.7268131692     3.0850497831    -0.9787155328
 F      2.8546764659     2.2530086875    -1.3423741537
 H      2.8337055113     4.5393879534     0.8243188794
 F      2.7180145819     4.4831762735    -0.0836155102
 H      2.8902211772     1.2295353168     0.3140949849
 F      2.6192990149     0.6638911427     0.9830769356
 H      2.2466905210     1.2682481103     4.9897756387
 F      1.8603768591     1.3559484873     5.8167940172
 H     -1.2924858099     4.6862966649     5.3413985717
 F     -0.9768117598     4.7069039344     4.4806929108
 H      2.9856390340     0.6974111288     2.6721894374
 F      3.1740566776     0.8442043419     3.5575365694
 H      1.4738697362     3.0446709322     6.5567429686
 F      1.3536596522     3.6495695196     7.2353711692
 H      0.3668832624     3.9636257292     4.1438494938
 F      1.2424218264     3.7131709170     4.0361758664
          20
Energy: -72.09906527473112 Kcal/mole
 H     -1.7989013646     2.2330595242     4.7788039608
 F     -1.5389897665     3.0979379910     4.9379271797
 H      2.7930291377     5.5623170436     2.5102812520
 F      3.6782948365     5.4371036162     2.3065283622
 H      4.1863451274     2.5579526659     1.6030890340
 F      4.4953929409     2.0465087136     2.2986489039
 H      3.7241481104     4.4865981547     1.0697586154
 F      3.6345223143     3.7810110011     0.4909641913
 H      3.1554910572     1.9527086156     3.1109801330
 F      2.3898864222     1.8536423107     3.6058785166
 H      0.9193230247    -0.3807691950     6.1157304877
 F      0.2580733165    -0.2067143410     6.7267482707
 H     -0.1783828563     4.1157753940     5.0193296789
 F      0.5386762207     4.6868897405     4.9960126604
 H      2.4405207737     0.3846231283     4.3868714625
 F      2.2040041103    -0.3007033242     4.9483663613
 H     -1.1181049549     0.1363648336     5.7335313054
 F     -1.5178859861     0.4073546545     4.9540259211
 H      0.9056626372     5.3133105772     3.4843076143
 F      1.2431989320     5.5041651866     2.6533246014
          20
Energy: -71.8883277952952 Kcal/mole