          20
Energy: -77.31024013997443 Kcal/mole
 H     -2.9271157801    -0.1216570069     0.8640574003
 F     -3.6469125022     0.0057525830     1.4177256000
 H     -3.3395783685     3.0253890341    -0.4338569558
 F     -2.4743444304     2.8012247355    -0.2288945209
 H      1.0897469228     4.7880252328    -0.2719336663
 F      2.0037876754     4.8534746903    -0.3056215142
 H     -1.1916787716     3.9951780050    -0.1709398372
 F     -0.6152115129     4.7043073452    -0.2465048983
 H      3.1529461804     3.9002372524     0.3967287314
 F      3.7058663418     3.2923278635     0.8036863091
 H      1.1674457299     1.1742156316     0.7036080248
 F      0.3988270267     1.3998026974     0.2572620101
 H     -5.2450399006     0.4170166824     0.7863955913
 F     -5.8623859048     0.8821272952     0.2929941028
 H      3.0822005535     1.8373434994     1.3869769825
 F      2.6339694659     1.0434788371     1.4857534470
 H     -0.8751751883     0.3236302137    -0.0908689196
 F     -1.5327685302    -0.3084058023    -0.1856870154
 H     -5.4231872941     2.3385857996    -0.4079213315
 F     -5.0126630992     3.1008332622    -0.7101425932
          20
Energy: -76.50922887052813 Kcal/mole
 H     -2.9966774852     0.7821618492    -1.2214845521
 F     -3.8731678117     1.0251672295    -1.3381125625
 H     -3.3069465515     3.7863290062    -0.3693602945
 F     -2.4675879309     3.6698887512    -0.7197996946
 H      0.7844786521     5.3570933718    -0.3386500273
 F      1.5712116009     5.2531584264     0.1208473006
 H     -1.3672656578     4.9372614368    -0.8332324262
 F     -0.7517643856     5.6025744323    -0.9725371352
 H      3.0204077664     4.3267140081     0.5852747968
 F      3.6508537528     3.7044783927     0.8224449828
 H      0.9866502017     1.9880640088     0.3994299776
 F      0.2272297876     2.1790261050    -0.0777524953
 H     -5.2068254857     1.0952380878    -0.2199335235
 F     -5.7361946649     1.5203975201     0.3964241075
 H      2.9804731505     2.2230268336     1.2206628375
 F      2.3297309870     1.5834574691     1.3121760309
 H     -0.7511559079     0.9797185864    -0.6818182782
 F     -1.4208297432     0.4162604505    -0.9555716041
 H     -5.1718120970     3.1379136046     0.4471281649
 F     -4.7695723483     3.9593029299     0.3807070770
          20
Energy: -76.75988802627926 Kcal/mole
 H     -3.0216169631     0.3187431785    -0.7770711664
 F     -3.8411751623     0.3511914086    -0.3669974285
 H     -3.2606983412     3.5216430529    -0.9236036087
 F     -2.4547931959     3.1503160261    -1.1549521250
 H     -0.0218571580     4.6118076369     0.1170675420
 F      0.2248687086     4.5478395240     0.9979327004
 H     -1.2603679126     4.1919700401    -1.4349941490
 F     -0.5979433716     4.8256312517    -1.4114103306
 H      1.8928371084     4.0801507417     1.2706249319
 F      2.7720253024     3.8202137168     1.2893295444
 H      1.1724901908     1.5998888550    -0.6895602661
 F      0.3575757196     1.7927443783    -1.0632046849
 H     -5.3296415658     1.0301783792    -0.5608770206
 F     -5.9901297806     1.6583338690    -0.6612014881
 H      2.7544090155     2.3006518607     0.5839478742
 F      2.5473181243     1.4811834438     0.2283162158
 H     -0.8137601544     0.6761283505    -1.3588920830
 F     -1.5176678428     0.1079451827    -1.5091280771
 H     -5.3444917995     3.2660660541    -0.5510060448
 F     -4.7869635873     3.9852630459    -0.4378381184
          20
Energy: -76.80912271244432 Kcal/mole
 H     -3.1409402122     0.0167872827    -0.7649729062
 F     -3.9350935690    -0.2587683176    -0.3985325195
 H     -4.1317798043     3.1375094549    -0.3719855126
 F     -3.2899675276     3.1525598290    -0.0086474096
 H     -0.5380067898     5.5780576559     0.1471010886
 F      0.3372292518     5.6163791825     0.4179928234
 H     -2.5380603146     4.6727658729    -0.2652195127
 F     -2.0700136288     5.4373422483    -0.4582072481
 H      1.8034983877     5.0037808909     1.1445152468
 F      2.5597162862     4.5207659742     1.3335128133
 H      0.6028338256     2.2499625411    -0.3572320778
 F     -0.3034834649     2.3269900816    -0.4736138928
 H     -5.5462869767     0.1647491798    -0.8484603968
 F     -6.3640586336     0.5409545548    -1.0234119128
 H      2.5125575807     3.0062032712     0.4902994886
 F      2.2207102978     2.2548624914     0.0530338988
 H     -1.2627387597     1.1929390634    -1.2200508956
 F     -1.7772504371     0.5005399411    -1.5310978203
 H     -6.1691354506     2.1692332796    -1.0264448424
 F     -5.7881757452     2.9958769144    -0.9150042583
          20
Energy: -76.4821196038839 Kcal/mole
 H     -2.6591728810     0.3392388319    -1.2366747705
 F     -3.4068067409    -0.0526263815    -0.8783812232
 H     -3.3186229078     3.4663563594    -1.8152063239
 F     -2.6896996283     3.4189901513    -1.1495480400
 H      0.1190649202     5.7269394919    -0.2771334501
 F      0.6751489410     5.9473637884     0.4179008593
 H     -1.5638007343     4.5775274713    -1.2447646962
 F     -0.9614172494     5.2391372297    -1.4455024970
 H      2.1443253205     5.2182532038     0.4512147138
 F      2.9491628624     4.7789185105     0.4407000427
 H      1.1184643514     2.2620474467    -0.6090364147
 F      0.3813489581     2.4938755808    -1.1028031746
 H     -4.6562698822     0.4326802014    -1.8648560116
 F     -5.3065242339     0.8205315592    -2.3821853093
 H      2.7791069385     3.1748984762     0.3921646265
 F      2.4897922941     2.3054704837     0.4279557187
 H     -0.7679229298     1.4798258913    -1.8027923964
 F     -1.3919578995     0.9508233842    -2.2170697239
 H     -5.1175611485     2.5362957305    -2.7472154625
 F     -4.6877917734     3.3463471569    -2.7452227880
          20
Energy: -77.3239098075758 Kcal/mole
 H     -2.6277658873     0.1945758575    -2.2972463017
 F     -3.4611879975    -0.0760138750    -2.0269172748
 H     -2.9311213520     3.9048637941    -3.0014917689
 F     -2.0624334979     3.8266202736    -2.7183869055
 H      0.2614593858     5.3983318563    -0.6369080901
 F      0.6491320114     5.1643891260     0.1605063155
 H     -1.0586595778     5.0939834323    -2.3425317179
 F     -0.4463984117     5.7160943698    -2.0614565574
 H      2.1775725548     4.3972568820     0.3972925328
 F      2.9764765016     3.9472327418     0.3863491755
 H      1.4987076384     2.5160716017    -2.0390651509
 F      0.5970925114     2.6721737576    -1.9789712268
 H     -4.6235627097     1.0806424823    -1.7954639747
 F     -5.2010842966     1.7915033722    -1.7503573021
 H      3.1406632910     3.1031044843    -1.0348594035
 F      3.1080528215     2.5697245954    -1.7800650472
 H     -0.6063533406     1.6237167072    -2.4665532042
 F     -1.1189879592     0.8950003711    -2.6835030818
 H     -4.9599127260     3.1731757284    -2.6858190815
 F     -4.5714243708     3.7936552859    -3.2380608009
          20
Energy: -76.3593339902216 Kcal/mole
 H     -1.6828258487     0.1295270680    -3.4962198896
 F     -2.5939616075     0.0444906080    -3.4371484963
 H     -1.8499791561     4.1901108603    -4.5708155393
 F     -0.9673671900     4.2328755398    -4.3257516710
 H      0.0025987773     5.1427672962    -0.6239670274
 F      0.5801639728     5.2563900125     0.0791669024
 H     -1.0036884690     4.6105310758    -2.7572436386
 F     -1.1327741973     4.8532054136    -1.8824093454
 H      1.6654871961     4.2376074663     0.8450495452
 F      2.2403882136     3.6347511956     1.2283798688
 H      1.2934673829     1.7980906442    -1.1878648736
 F      0.9410256770     2.0854175393    -1.9841795723
 H     -3.6286865225     1.3758334932    -3.0459714972
 F     -4.1382629068     2.1181378286    -2.8721751158
 H      2.1543418610     2.0976488977     0.6404170117
 F      1.8520695747     1.3421683609     0.2176054421
 H      0.2845262759     1.0397972947    -3.1134260807
 F     -0.0648326187     0.3691376673    -3.6321292974
 H     -3.8006748006     3.2405696794    -4.0845552872
 F     -3.4997398680     3.7584909783    -4.7788784788
          20
Energy: -77.0040858198101 Kcal/mole
 H     -1.6925870574    -0.2934120116    -3.5783629588
 F     -2.6013116819    -0.2663105352    -3.4584710629
 H     -1.6078254153     2.9869926642    -4.6566020189
 F     -0.7670049055     2.9073664556    -4.2994332392
 H      0.8204155688     4.5716780860    -1.2805441878
 F      0.9613473914     4.5555411786    -0.3745823665
 H      0.1327824819     4.0868515768    -3.4788867386
 F      0.5732444526     4.7169784561    -2.9790644017
 H      2.1911635226     3.8991424147     0.6643616983
 F      2.7626623110     3.2834543499     1.0320658480
 H      1.0944884715     1.4021879493    -1.1838515102
 F      0.9106523743     1.6494253522    -2.0475452962
 H     -3.8094001849     0.3787272400    -4.4421480615
 F     -4.3334124299     0.8540605583    -5.0255504986
 H      2.0109318664     1.7939632320     0.7084872513
 F      1.5095828665     1.0807405035     0.4241432347
 H      0.3572488754     0.4989372471    -3.2108472857
 F      0.0533219137    -0.1960708442    -3.7260959199
 H     -3.5986833046     2.2164243616    -5.3136340527
 F     -3.0610676697     2.9433062258    -5.4669350136
          20
Energy: -77.19389023502335 Kcal/mole
 H     -1.9967496805    -0.2777582664    -3.0696993277
 F     -2.7915508655    -0.0571658846    -3.4703476490
 H     -0.9629059061     2.8099214367    -4.7736005385
 F     -0.5144187764     2.7644708795    -3.9750502638
 H      1.5942783820     4.7678114922    -1.4820683015
 F      2.1525001541     4.7995792232    -0.7552476466
 H      0.1707666212     4.1086277626    -3.1715730287
 F      0.6220769010     4.8172785944    -2.8041195896
 H      2.0521201619     3.7773485899     0.5368604995
 F      1.9679248333     3.2021037630     1.2460103678
 H      1.6493898594     0.9939927023    -0.9782737764
 F      1.1378889734     1.2242362026    -1.7037003918
 H     -3.4387100661     0.4050235564    -4.9896533782
 F     -3.5351861610     0.7718301311    -5.8245391787
 H      2.3654547397     1.6280602533     0.8754175676
 F      2.4531289892     0.8044158496     0.4819558512
 H      0.1319689566     0.0535254282    -2.1110304974
 F     -0.5569380091    -0.5363927746    -2.2462810306
 H     -2.4480947957     2.0096135850    -6.1203368828
 F     -1.8364650274     2.6922525468    -6.1486578009
          20
Energy: -77.71918629018363 Kcal/mole
 H     -1.9155359363    -0.1752667770    -3.2810419589
 F     -2.2187448859    -0.1596102008    -4.1463212228
 H     -2.5822883629     3.0519124283    -3.1763409186
 F     -1.8884723777     2.7594321733    -2.6529255203
 H      0.7597007015     4.6098279329    -0.9915065944
 F      1.6511948774     4.5280772545    -0.7929015571
 H     -1.2100183837     3.9691596576    -1.7600286948
 F     -0.9260425866     4.6951112215    -1.2770783106
 H      1.9996886316     3.9623543005     0.8021641808
 F      2.0977491923     3.5937519112     1.6360738911
 H      0.2530380323     1.4174417117     0.4645052032
 F     -0.1193541792     1.5825370148    -0.3570522091
 H     -3.7576210594     0.4187978131    -4.6082764272
 F     -4.4875568233     0.9422452199    -4.7928992669
 H      1.4396232472     2.1030063855     1.9212931370
 F      1.1094735672     1.2523261778     1.8305552002
 H     -0.8697448273     0.3695113930    -1.3242531603
 F     -1.2485254672    -0.3158252156    -1.8014616679
 H     -4.1521141205     2.5079844186    -4.3908338358
 F     -3.8964695758     3.3192490297    -4.0482194789
          20
Energy: -77.5799149933054 Kcal/mole
 H     -1.0056766136    -0.0198992962    -3.5426368328
 F     -1.2462113968     0.1010221021    -4.4192268359
 H     -1.8886436659     3.7689019715    -2.9145308487
 F     -1.3306808751     3.4079462726    -2.2826467553
 H      1.0779166779     5.4384085856     0.1821018034
 F      1.8334107772     5.5152156364     0.6961235371
 H     -0.5740404182     4.5208494183    -1.2672367847
 F     -0.2872631564     5.2336016349    -0.7666051038
 H      2.8052905284     4.4880804169     1.5795223839
 F      3.2073931500     3.7891849262     2.0162689635
 H      1.2632993323     1.6038312513    -0.1394717705
 F      0.7237129795     1.7412856294    -0.8680607231
 H     -2.3914331605     1.1939826390    -4.9838380620
 F     -3.0411917367     1.8005498959    -5.2091799256
 H      2.6731733170     2.2192310415     1.5544835261
 F      2.2505014323     1.4799893929     1.2142493966
 H     -0.1339585076     0.5156499374    -1.5093442807
 F     -0.6123766995    -0.1310031994    -1.9496223228
 H     -3.0750436520     3.2865596611    -4.5875302930
 F     -2.9594545522     4.1067129893    -4.1939865492
          20
Energy: -76.57464302654665 Kcal/mole
 H     -0.9752214301    -0.0798495907    -3.5194858053
 F     -1.3040461840    -0.1624612891    -4.3715061035
 H     -1.8553295857     3.2461695861    -3.4824722238
 F     -1.2399764087     2.8862654852    -2.9056719935
 H      0.7923427275     5.5605800733    -0.4668028136
 F      1.2275348043     5.8815136094     0.2738040468
 H     -0.2224862932     4.1583529174    -2.1617596023
 F      0.3134635921     4.8304603913    -1.8425132022
 H      2.1507924399     4.8850559638     1.2739609404
 F      2.8021321342     4.3515915867     1.6373634182
 H      1.1694302551     1.8815866834     0.1451071923
 F      0.6379131289     1.9980040676    -0.5930157901
 H     -2.4882638494     0.8088064261    -5.2697051651
 F     -3.0995534590     1.3821929272    -5.6417830246
 H      2.4432563936     2.7485288342     1.6152532947
 F      2.2061837254     1.8758506407     1.4632061946
 H     -0.0800861282     0.7251116925    -1.4932254567
 F     -0.4334420424     0.0139730899    -1.9518216689
 H     -3.2211886331     2.8860640486    -4.9005059848
 F     -3.1107987546     3.6670638553    -4.4328069612
          20
Energy: -77.52451849978624 Kcal/mole
 H      0.0917080783    -0.4657366028    -3.5409531299
 F     -0.0522875013    -0.5733722632    -4.4401576882
 H     -1.7256410350     2.4396364955    -3.5704230367
 F     -1.0966580181     2.3484080119    -2.9094035754
 H     -0.5132485989     4.3642326835     0.2557961717
 F     -0.5597281063     4.3839790330     1.1714045690
 H     -0.5853893309     3.6158738247    -1.8809775597
 F     -0.2482160577     4.2900418965    -1.3587701346
 H      0.8814247542     4.0027246264     1.7772638129
 F      1.7548697091     3.8033949923     1.9728414389
 H      1.3202428378     1.5259225774     0.0649700301
 F      0.5090424802     1.5882878988    -0.3580589838
 H     -1.5328740383    -0.2093670656    -5.2385517174
 F     -2.3272909198     0.0679694933    -5.6030722949
 H      2.5180961869     2.4107175964     1.3934039604
 F      2.6539206379     1.6160979080     0.9563453038
 H      0.3098580301     0.3177344902    -1.4580920702
 F      0.2211504476    -0.4891253100    -1.8847034011
 H     -2.8077377587     1.5750852075    -5.0900868050
 F     -2.9120206222     2.3827495865    -4.6685511181
          20
Energy: -77.29981067501015 Kcal/mole
 H     -0.0084643469    -0.9345360024    -3.8079659866
 F     -0.2740426304    -1.0718357024    -4.6748604252
 H     -1.7434506439     2.3614132694    -3.8194171058
 F     -1.2705747640     2.2296775978    -3.0448700671
 H     -0.6503468097     3.9567356689     0.0649035512
 F      0.0184796830     4.2127406000     0.6376352491
 H     -1.5926807029     3.1021105482    -1.7492578055
 F     -1.8224587467     3.5807119352    -1.0015735386
 H      0.3759000647     3.5649693796     2.2125328850
 F      0.5343688867     3.0532511654     2.9567916449
 H      0.7825270079     1.1322527569     0.1366048827
 F      0.6014962202     1.3212097077    -0.7422649169
 H     -1.0276079341    -0.0116592099    -5.7868822249
 F     -1.3199908519     0.5888499648    -6.4152053587
 H      0.9121653789     1.6122661387     2.2324362214
 F      1.0351455216     0.8739909470     1.7026111316
 H      0.4281226414     0.0794901263    -1.7915803510
 F      0.4343075379    -0.6917723479    -2.2875692046
 H     -2.1932630725     1.8837220972    -5.7931544326
 F     -2.4986693874     2.5446537954    -5.2356732462
          20
Energy: -77.83626493490969 Kcal/mole
 H     -0.6121091105    -0.9827374868    -3.9632107160
 F     -0.3656399199    -0.8653264756    -4.8386286691
 H     -2.6519552588     1.4916750720    -3.8777115850
 F     -2.2097704188     1.4837988970    -3.0744062052
 H     -0.4281625562     3.9679676722    -0.8479132692
 F      0.4241031107     4.0682559490    -0.5246881239
 H     -2.1081656202     2.8321536000    -1.9213891233
 F     -1.9600596612     3.5788664950    -1.4101421406
 H      0.7876486485     3.5548238429     0.9625384519
 F      0.8861848555     3.0925475896     1.7483375875
 H     -0.1541068623     0.4859318286     0.1174878675
 F     -0.6784221982     0.5116381231    -0.6343908561
 H     -1.2989649491    -0.3862349641    -6.1783476076
 F     -1.9200428599     0.0080108639    -6.7258158312
 H      0.9565054167     1.4087166311     1.5892634447
 F      0.8722805599     0.5293052009     1.3434368597
 H     -0.9846867741    -0.6561793310    -1.7974985705
 F     -1.0774195747    -1.3009274378    -2.4429360240
 H     -2.9251471085     0.9555843524    -5.9214679372
 F     -3.4207582696     1.4158008187    -5.3022269655
          20
Energy: -77.44512357303358 Kcal/mole
 H     -0.8569601299    -1.5142221507    -3.4062135553
 F     -0.8646546559    -1.6697916143    -4.3098882403
 H     -2.9400516681     1.3282004827    -3.8580284510
 F     -2.3797470193     1.3706955254    -3.1333617194
 H     -0.4525820815     3.7505381533    -0.9725985171
 F      0.2770474875     3.8153079618    -0.4209332527
 H     -2.0792345313     2.8087569733    -2.2470997615
 F     -1.8555431502     3.5727089517    -1.7918761455
 H      0.2139165593     3.5187562763     1.3077060241
 F      0.0320050919     3.2293502689     2.1586122357
 H     -1.2515043906     0.7799739231     0.4543205245
 F     -1.5886161340     0.8827931689    -0.3922448157
 H     -2.3837154530    -1.4653949816    -5.1608164116
 F     -3.1484927773    -1.1855277721    -5.5823362680
 H     -0.4088190469     1.6522611738     2.1383874369
 F     -0.6910022461     0.7928030158     1.9880767034
 H     -1.1913648258    -0.4590922490    -1.3330765954
 F     -0.9332289536    -1.2269741362    -1.7627419057
 H     -3.6923312889     0.4179493449    -5.4756251152
 F     -3.9471675824     1.2219126084    -5.1156382620
          20
Energy: -77.15632330947588 Kcal/mole
 H     -1.2713439328    -1.3869785754    -3.5187326723
 F     -1.9967030711    -1.7689125517    -3.9296700862
 H     -3.5307739788     1.0889832474    -3.3708799033
 F     -2.8722776770     1.3069427953    -2.7710755553
 H     -0.9550205330     4.0823206497    -0.8645410679
 F     -0.4366369908     4.3426254462    -0.1543235547
 H     -2.3135404915     2.8360095463    -2.2981725601
 F     -1.9846808443     3.6710381156    -2.1098440683
 H     -0.6968256434     3.6385127086     1.3786043854
 F     -0.9476379176     3.0052555839     1.9925812718
 H     -0.1029788854     0.9899379998    -0.2282757994
 F     -0.3185342184     1.1967447756    -1.0952566850
 H     -2.6608801015    -1.2519392871    -5.3686757301
 F     -3.0693348705    -0.7786748479    -6.0395516295
 H     -0.3477338080     1.4297236586     1.7329125824
 F      0.0955838626     0.7086807589     1.3801299584
 H     -0.0892036909     0.1114260164    -2.3165282609
 F      0.0692021133    -0.5429203911    -2.9391255467
 H     -4.0610578499     0.2686317756    -5.2973050197
 F     -4.4528408707     0.7590040272    -4.6287766961
          20
Energy: -77.50157491872767 Kcal/mole
 H     -1.5964000021    -1.6693464386    -3.2491928077
 F     -2.2976648881    -2.1352167093    -3.6126229254
 H     -4.1320188501     0.9681094667    -2.9080629922
 F     -3.4647492718     1.0500039625    -2.2844175790
 H     -2.2888073545     3.4785555422     0.3941290589
 F     -1.5610363020     3.9699449332     0.6582781864
 H     -3.5989208044     2.0732601796    -0.8691326329
 F     -3.6170637253     2.6041725544    -0.1216756879
 H     -0.6669543962     3.6173749749     2.0315586582
 F     -0.1951491233     3.2411378151     2.7220182037
 H     -0.3898208032     0.8730485404     0.0566284917
 F     -0.8858430553     0.9678640667    -0.7087870434
 H     -3.3866209511    -1.5715267978    -4.6845035488
 F     -3.9242634952    -1.1566362772    -5.3006977964
 H      0.3227249080     1.7689528286     2.1232144046
 F      0.4405941648     1.0157092644     1.6136852382
 H     -0.6807307923     0.0199560369    -2.0031235533
 F     -0.5399499361    -0.5345009310    -2.7198154126
 H     -4.8264501157    -0.0100950917    -4.5765391557
 F     -5.2589519723     0.6012845670    -4.0473453755
          20
Energy: -77.71484017892132 Kcal/mole
 H     -1.3496642095    -1.8372997893    -3.9690764386
 F     -1.9557778270    -2.3260930990    -4.4534279465
 H     -3.9551289020     0.5237181937    -3.0307319584
 F     -3.1983233185     0.8607157666    -2.6375819303
 H     -2.1874676971     3.3540675424    -0.0401633676
 F     -1.5628103039     3.9722366897     0.2216744572
 H     -3.1071148649     1.6088285915    -1.1170206005
 F     -3.2121380670     2.1017568062    -0.3509390760
 H     -0.4046846674     3.5892160776     1.3676370709
 F      0.2363355725     3.2353762398     1.9197053831
 H      0.1158957584     1.2010103333    -0.8648272806
 F     -0.5052047287     1.0576863074    -1.5240551688
 H     -3.3718249364    -2.0120811572    -5.2159996792
 F     -4.2361970950    -1.8261775150    -5.4592888223
 H      0.9751909708     2.0281670509     1.0751666191
 F      1.1027631061     1.3909579940     0.4281898280
 H     -0.3594660590    -0.2539425818    -2.5688553930
 F     -0.2486633654    -0.9657741098    -3.1362244428
 H     -5.0242905175    -0.7545009021    -4.4669745224
 F     -5.2454121031    -0.1324301657    -3.8305609436
          20
Energy: -77.6956538260695 Kcal/mole
 H     -0.9502773267    -0.9014628653    -5.0660036796
 F     -1.4233870787    -1.0667040168    -5.8339564935
 H     -3.5383057585     0.7679713318    -3.3320451545
 F     -2.7233368485     0.9311863452    -2.9446493166
 H     -1.0862887203     3.9681055159    -1.1653857729
 F     -0.3122376713     4.3847381953    -0.9043279557
 H     -2.5202447548     2.3996382976    -2.0537103421
 F     -2.4449812819     3.1829350120    -1.5828911977
 H      0.5274854914     3.8031556563     0.4020432919
 F      0.8941600553     3.3142616785     1.0857255592
 H      0.2897807829     1.0209452275    -0.9303183808
 F      0.0408388016     1.2312068338    -1.7874688617
 H     -3.0992631178    -1.4191619468    -5.8828536115
 F     -4.0146602752    -1.4725703632    -5.8736565853
 H      0.8496573574     1.6905556817     0.9484096459
 F      0.7482985053     0.8334544494     0.6385824995
 H     -0.0728965171     0.0284241015    -2.9790944757
 F     -0.0607563285    -0.6996819655    -3.5364123123
 H     -4.7516116200    -0.3731135200    -4.8098291575
 F     -4.8465371081     0.2743641781    -4.1674501556
          20
Energy: -77.65711008337408 Kcal/mole
 H     -0.9657403622    -0.8526102063    -5.5041300818
 F     -1.3811303802    -0.6683895685    -6.3006242058
 H     -3.4298030883     0.9084728250    -3.6418603204
 F     -2.5718206912     1.0305969070    -3.3421255795
 H     -1.0712566544     4.0063009584    -1.3437182652
 F     -0.2724111272     4.4518438588    -1.2787078994
 H     -2.4127283624     2.3100994376    -2.1054229546
 F     -2.3807928221     3.0125754113    -1.5168682607
 H      0.9499590745     3.6192495491    -0.5933517178
 F      1.5455501859     3.0317623806    -0.2178266788
 H      0.8368540173     0.4617439213    -1.6954434811
 F     -0.0544451967     0.3989528030    -1.9016763266
 H     -3.0536945023    -0.5588854477    -6.4728135906
 F     -3.9658599272    -0.4707561204    -6.5056230307
 H      2.2107694767     1.5955530844    -0.8611475767
 F      2.3720530352     0.7907437133    -1.2699977814
 H     -0.3350608129    -0.5509465433    -3.2447155189
 F     -0.3949044273    -1.1382778324    -3.9463918679
 H     -4.7310936905     0.2540558358    -5.1619280066
 F     -4.8819209139     0.6008614165    -4.3265442397
          20
Energy: -78.08637496257938 Kcal/mole
 H     -1.3683491434    -1.1967188981    -5.8337083664
 F     -2.1024130600    -1.1914901654    -6.3832643932
 H     -3.6291802499     0.2192349904    -3.4811027426
 F     -2.7609471129     0.2201639014    -3.1860445163
 H     -0.8496203362     3.0737264073    -1.5760203706
 F     -0.1817432029     3.6988177295    -1.6399732718
 H     -2.1784605102     1.2851787809    -1.9625080751
 F     -1.9782690217     1.9133003239    -1.3251104794
 H      1.2309810118     3.1746524809    -0.8774163638
 F      1.9389275055     2.7881269522    -0.4411838825
 H      1.0575094920     0.1950786349    -2.2812600205
 F      0.2223692951     0.1803311577    -2.6596941143
 H     -3.6110913229    -1.6676176742    -5.9823421489
 F     -4.4970340821    -1.8031097389    -5.7883413040
 H      2.4007630969     1.3401222601    -1.0245849996
 F      2.4506762901     0.5223819570    -1.4365297408
 H     -0.0208672600    -0.7378595107    -3.9935758343
 F     -0.1158306970    -1.2816550925    -4.7258034702
 H     -5.0209264727    -0.5970379300    -4.7450941535
 F     -5.1194560562     0.0232112664    -4.0769086587
          20
Energy: -77.65187090485801 Kcal/mole
 H     -1.2970425213    -0.4336540579    -5.8786813822
 F     -1.9138041878    -0.3438101261    -6.5513046903
 H     -3.2677665894     0.9680305212    -3.5255858007
 F     -2.3896477321     1.0815191177    -3.2870137762
 H     -0.5393004613     2.8075943255    -0.6123210234
 F      0.2386992550     3.2100648447    -0.3409855805
 H     -2.1593533146     1.8083624567    -1.8704924624
 F     -1.9785008829     2.1674099879    -1.0463163476
 H      1.4412403857     2.2682026587     0.2186249296
 F      2.0799970895     1.6810962223     0.5155843640
 H      1.3289537580     0.5113305880    -2.3637125147
 F      0.5067053342     0.7228417669    -2.7102086197
 H     -3.5636639215    -0.1136132344    -6.7042824851
 F     -4.4662176577     0.0107033216    -6.6002096869
 H      2.5395350307     0.6196752992    -0.6694192788
 F      2.6743762913     0.2398218584    -1.4930807372
 H      0.0280016271    -0.2364308567    -4.0291743655
 F     -0.2118126630    -0.8103212868    -4.7029902754
 H     -4.6907957946     0.3922895555    -4.9806045355
 F     -4.7589530187     0.7119516953    -4.1238316898
          20
Energy: -77.84563324146507 Kcal/mole
 H     -1.2362102711    -0.3416927286    -5.5891834800
 F     -1.8463210553     0.1991416463    -6.0088881500
 H     -3.3694885778     0.5535790476    -3.0055893378
 F     -2.5132615053     0.3468901790    -2.7505522582
 H     -0.4796190169     2.3270987763    -0.3183730423
 F      0.2302804405     2.9007700939    -0.2298689204
 H     -1.8377086021     0.8002622969    -1.2864258353
 F     -1.5911986294     1.0605858778    -0.4424154879
 H      1.7283265954     2.2385026976     0.0731765399
 F      2.4948404028     1.7404105323     0.1456318920
 H      1.1433241394    -0.2441962409    -2.0491164061
 F      0.5548822563     0.0422465190    -2.6914369611
 H     -3.5125119680    -0.1643387596    -6.0075302245
 F     -4.3807580689    -0.4274844058    -5.8741432788
 H      2.3560458583     0.2579820768    -0.3946078939
 F      2.1548884529    -0.5420310141    -0.7951122669
 H      0.1267969524    -0.8457273219    -4.0057426117
 F     -0.2238422126    -1.3236695899    -4.7053942139
 H     -4.8610508920     0.3000086274    -4.4305639011
 F     -4.8713445694     0.7372112648    -3.6245633465
          20
Energy: -78.27229767240951 Kcal/mole
 H     -1.4039163885    -1.4143904322    -5.2645469022
 F     -2.0669893270    -1.1376997194    -5.8343411876
 H     -3.3241217849    -0.4469862234    -2.4913713715
 F     -2.4383312233    -0.5311535185    -2.2696058477
 H     -0.4460351835     2.1999421677    -0.6140446579
 F      0.2390917325     2.7986544864    -0.7282097506
 H     -1.8814977238     0.4519348440    -1.0580531436
 F     -1.5856017460     1.0454271772    -0.4247274605
 H      1.8150441874     2.3291337760    -0.5547996141
 F      2.6442346195     1.9643623020    -0.4124128199
 H      1.3542484547    -0.3710183713    -1.9272120396
 F      0.5694138106    -0.2322574548    -2.3807194701
 H     -3.7453182145    -1.2076271705    -5.6600002818
 F     -4.6282289193    -1.2043973439    -5.4123165005
 H      2.9190596581     0.3728375474    -0.8812429176
 F      2.8054804993    -0.4825760914    -1.1914948817
 H      0.0439014535    -1.3562514079    -3.5896509100
 F     -0.2657456367    -1.9376149242    -4.2276353467
 H     -4.8850786175    -0.7306399581    -3.8561224422
 F     -4.8926553732    -0.4480974994    -2.9837685279
          20
Energy: -77.96797274002498 Kcal/mole
 H     -1.5845955858    -0.9515344716    -5.3219315780
 F     -2.0907455975    -0.6400583102    -6.0202751658
 H     -3.2676528339     1.1707168663    -3.2788100531
 F     -2.3610214152     1.1801830431    -3.1416281951
 H     -0.5600959973     2.8692856049    -0.2471612649
 F      0.2279376244     2.9552233319     0.2138232447
 H     -2.0003596387     2.1197907731    -1.8246300636
 F     -1.9507568767     2.6489321363    -1.0773429811
 H      1.7915563256     2.3754067777     0.2492798778
 F      2.6334380497     2.0164765291     0.1918931260
 H      0.9622550207    -0.3084722059    -1.5820917035
 F      0.0998191905    -0.2577354501    -1.8895314870
 H     -3.7552512079    -0.5709177403    -6.0200941656
 F     -4.6605787258    -0.4923913511    -5.8971930204
 H      2.6373844243     0.5719497920    -0.5073704104
 F      2.4524959196    -0.2271575707    -0.9174102422
 H     -0.4401834169    -1.0176507900    -3.2972598389
 F     -0.6427741308    -1.4959136046    -4.0529784921
 H     -4.9236196612     0.3490426394    -4.5370982985
 F     -4.8653687331     0.8237408944    -3.7546934186
          20
Energy: -77.75481418557287 Kcal/mole
 H     -1.1875095460    -0.1500704358    -5.7100756187