          2
Energy: -0.019999999997116755 Kcal/mole
 He     0.9509998411    -2.5208855881    -3.1753161768
 He     3.6152673587    -3.4008259706    -2.5764632410
