          2
Energy: -0.019999999992613374 Kcal/mole
 He     0.8818627365    -5.2218934842    -1.8758396806
 He     2.9683098715    -4.6775834087    -3.7683667985
