          2
Energy: -1.9637378425876717E-6 Kcal/mole
 He    -5.6428741765    -5.1124799864     2.6258138595
 He     2.7599899604     2.7758700037    -6.9638147272
          2
Energy: -7.230712230290157E-5 Kcal/mole
 He     5.7089764446    -5.4468276288     3.3808084803
 He    -0.6724150055    -4.0528942801    -1.6076828767
          2
Energy: -9.596390308054547E-7 Kcal/mole
 He    -5.1192677294    -5.8108082122    -5.1590870817
 He    -4.2637985496     7.0379316985     5.7758883769
          2
Energy: -1.598510371614475E-6 Kcal/mole
 He    -5.6433170172    -7.1008328161     5.7343678663
 He     6.7656660228     1.7192907684     2.7379560020
          2
Energy: -4.748019190688798E-4 Kcal/mole
 He    -0.7605932217     3.8658325177     7.2807263879
 He    -5.4091983705     1.0993796356     4.6828019950
          2
Energy: -3.011547751159366E-7 Kcal/mole
 He     6.6711801863    -6.0742691612     4.6857451764
 He    -6.9554466274     6.3621977185    -4.2373820214
          2
Energy: -1.2178836456030048E-6 Kcal/mole
 He    -0.6142805420     7.3133845295    -4.7469688766
 He    -0.4542426323    -6.4581210662     3.8507824372
          2
Energy: -5.584887016490629E-6 Kcal/mole
 He     2.7792442392     6.6434269416     4.0422374504
 He     1.0052579654    -5.0946311270    -0.1686938244
          2
Energy: -2.4733544869371754E-5 Kcal/mole
 He     1.6996561807     7.1134731122    -4.9443201420
 He     0.2207410940     2.9179007312     3.8202460268
          2
Energy: -0.019999999989204865 Kcal/mole
 He     0.8512761565     4.0734518895    -2.6358585454
 He     0.9776917501     2.5988818877    -0.1780458791
