          2
Energy: -9.718282107800485E-7 Kcal/mole
 He    -3.7854637995    -1.2071469144    -7.4504631275
 He     6.3664977349     6.7440670256     3.4083247858
          2
Energy: -8.726261223066365E-6 Kcal/mole
 He     1.9462225259    -6.2155770941     2.1890789380
 He    -7.4204683960     0.7597637503     2.7708585541
          2
Energy: -7.5059844697608E-6 Kcal/mole
 He    -2.0159299333    -6.7405157378    -3.6433194950
 He     4.1501589732     1.5284892041     2.4700354843
          2
Energy: -0.01303040537804293 Kcal/mole
 He    -1.5294581333     7.0824176383     6.9717120082
 He    -3.1456076061     5.3009892665     4.6701027891
          2
Energy: -9.228189399411293E-4 Kcal/mole
 He    -0.0640477092     3.3163800678    -3.9195604793
 He     5.2228890945     3.9388370470    -4.5994334075
          2
Energy: -9.88824458462935E-6 Kcal/mole
 He    -6.5339671442    -1.2978702166    -5.8094971414
 He     2.6053682834     2.4759474092    -0.0320786545
          2
Energy: -1.484761790614918E-5 Kcal/mole
 He    -0.8570389378     0.4595988662    -2.2861424133
 He     3.6780985432    -6.6484817991     4.3043197694
          2
Energy: -9.249950778671205E-5 Kcal/mole
 He    -4.4716310589    -4.5348576206     5.1784774719
 He    -5.2895212012     2.8508275912     2.5320100476
          2
Energy: -1.3965886640043093E-6 Kcal/mole
 He     0.1193901154    -4.6704054011     6.2878922286
 He     6.6494863452    -0.2749574799    -7.4917601514
          2
Energy: -0.019999999992613374 Kcal/mole
 He     0.8818627365    -5.2218934842    -1.8758396806
 He     2.9683098715    -4.6775834087    -3.7683667985
