          2
Energy: -1.0401655396166894E-4 Kcal/mole
 He     1.8178870947    -2.1179806449     4.8682052639
 He     6.7528315419     3.5631032377     6.6578922109
          2
Energy: -0.009812396389101898 Kcal/mole
 He     3.8156465459     4.9558109350    -0.6935552539
 He     7.0297496042     3.5508279626    -0.2639008245
          2
Energy: -8.945111156084222E-7 Kcal/mole
 He     6.7759173479    -4.7055427613     4.6813573951
 He    -5.9054646780     4.9388858864    -1.5096072679
          2
Energy: -6.514750397399763E-5 Kcal/mole
 He     1.5763564504    -1.5000550951    -0.6341577234
 He    -6.7770130202    -1.8544063267    -0.8266847273
          2
Energy: -8.400373859561487E-6 Kcal/mole
 He    -1.8555388635    -5.9210419066     3.1145656853
 He     0.9976522469     2.9250047140    -4.1021796282
          2
Energy: -3.217852958303245E-4 Kcal/mole
 He     7.3650879991    -1.1860592379    -0.6577186445
 He     5.1812932841     4.7508470451     0.3466376095
          2
Energy: -7.187345142558559E-5 Kcal/mole
 He     3.9486954003     6.5884037955     1.3420287899
 He     5.9956929009    -1.3724420208     1.6894482671
          2
Energy: -9.817414613783792E-4 Kcal/mole
 He     7.0970998050     3.8971661681     2.8426028573
 He     3.8011550844     6.7601500576    -0.1816552229
          2
Energy: -1.535712421672777E-5 Kcal/mole
 He    -0.8781331481     0.6691808239    -5.9344957187
 He     5.9156123036    -6.9174858320    -2.8469531609
          2
Energy: -0.019999999997116755 Kcal/mole
 He     0.9509998411    -2.5208855881    -3.1753161768
 He     3.6152673587    -3.4008259706    -2.5764632410
