          2
Energy: -3.0894827623756683E-5 Kcal/mole
 He    -2.2122795452    -5.7545386054     0.1569461818
 He     4.3389692281     1.0340981558     0.9919395946
          2
Energy: -0.003229009963720876 Kcal/mole
 He     1.8021947222    -2.1175817317    -3.6392329994
 He     4.3681579040     1.0477025620    -5.1126877500
          2
Energy: -6.76980693761714E-5 Kcal/mole
 He     7.2847040289     4.3956711935    -2.9172600601
 He     3.2433020754    -1.3928968811    -7.3002496593
          2
Energy: -2.645587960417681E-4 Kcal/mole
 He    -6.6494681810    -1.1249493517     3.7386398354
 He    -3.7224165949     2.2012100057    -1.1777908736
          2
Energy: -6.174534814500088E-6 Kcal/mole
 He    -2.6083222681     7.3893881104     1.5361819382
 He    -6.5169641256    -4.3490335654     0.9261347206
          2
Energy: -1.5041237576199655E-6 Kcal/mole
 He    -5.8935774281    -2.9405279020     7.4643965934
 He     6.8009965017    -1.0699883099    -1.5377723273
          2
Energy: -7.621178567715347E-7 Kcal/mole
 He     5.8518105820     0.6365488805    -7.1601111916
 He    -4.5274284959    -1.1811050613     6.8809424150
          2
Energy: -0.0013183678302543889 Kcal/mole
 He    -1.9679592138     1.4678678185    -1.6130659494
 He    -5.2232510249     1.9297376800     2.2233762578
          2
Energy: -0.004365559134304444 Kcal/mole
 He     5.2387493972    -0.1867226057    -4.0882108540
 He     3.9412882535    -4.0093765535    -3.3208255097
          2
Energy: -0.019999999986864046 Kcal/mole
 He     2.3730067256    -1.8601161337    -4.1746134337
 He     3.6930603424    -2.7760471676    -1.7976770131
