          2
Energy: -0.019999999986864046 Kcal/mole
 He     2.3730067256    -1.8601161337    -4.1746134337
 He     3.6930603424    -2.7760471676    -1.7976770131
