          2
Energy: -0.019999999989204865 Kcal/mole
 He     0.8512761565     4.0734518895    -2.6358585454
 He     0.9776917501     2.5988818877    -0.1780458791
