          2
Energy: -3.41906726087801E-5 Kcal/mole
 He     3.5459020768    -4.2688372553    -2.7481824510
 He     0.1897835096     2.2592459893     2.9825118407
