          10
Energy: -34.53310437116167 Kcal/mole
 H      3.8481366452     4.8416441578    -2.2199558238
 F      3.2455223061     5.4591541537    -1.9094298775
 H      5.9071177453     4.0483652546    -2.2289073450
 F      5.1163422669     3.8405388609    -2.6440836121
 H      4.0039235406     6.7730385122    -1.2179311945
 F      4.5470563512     7.3898060902    -0.8111222654
 H      6.9226875326     5.0704866295    -0.6047672563
 F      7.2044476041     4.6046503123    -1.3426675122
 H      5.5988755673     6.5503109027     0.1611284840
 F      6.1640346948     5.9593324044     0.5761327914
          10
Energy: -34.533582944974086 Kcal/mole
 H      3.8490949130     4.8435870094    -2.2219450614
 F      3.2454714722     5.4590510900    -1.9093243531
 H      5.9045893187     4.0473601487    -2.2236330539
 F      5.1164763941     3.8405921794    -2.6443634011
 H      4.0053305648     6.7725134992    -1.2190093185
 F      4.5469817118     7.3898339410    -0.8110650734
 H      6.9240124068     5.0738521395    -0.6063972421
 F      7.2043773225     4.6044717798    -1.3425810453
 H      5.5964586709     6.5507501614     0.1650727612
 F      6.1641629055     5.9593091028     0.5759235566
          10
Energy: -34.5338399855855 Kcal/mole
 H      3.8483980910     4.8423798249    -2.2209088251
 F      3.2455084370     5.4591151283    -1.9093793230
 H      5.9066157150     4.0459640117    -2.2267626068
 F      5.1163688985     3.8406662413    -2.6441973855
 H      4.0041126068     6.7735703812    -1.2189881322
 F      4.5470463216     7.3897778758    -0.8110661973
 H      6.9234808509     5.0719736583    -0.6054054139
 F      7.2044055204     4.6045714289    -1.3426336595
 H      5.5984824945     6.5518669234     0.1638925571
 F      6.1640555464     5.9592498611     0.5759861637
          10
Energy: -34.533591016839154 Kcal/mole
 H      3.8481325808     4.8433788070    -2.2233881465
 F      3.2455225217     5.4590621346    -1.9092478007
 H      5.9051509100     4.0510830815    -2.2265430007
 F      5.1164466030     3.8403946865    -2.6442090351
 H      4.0020361892     6.7736234121    -1.2162896138
 F      4.5471564708     7.3897750626    -0.8112093475
 H      6.9255345940     5.0733569472    -0.6055042146
 F      7.2042965740     4.6044980486    -1.3426284183
 H      5.5974698609     6.5515359331     0.1648088720
 F      6.1641092642     5.9592674194     0.5759375554
          10
Energy: -34.53265064527753 Kcal/mole
 H      3.8456513801     4.8405507935    -2.2225803538
 F      3.2456541437     5.4592121542    -1.9092906523
 H      5.9045060750     4.0449548222    -2.2223044817
 F      5.1164808100     3.8407197764    -2.6444338788
 H      4.0041319086     6.7758183494    -1.2223881620
 F      4.5470452977     7.3896586263    -0.8108858336
 H      6.9243206075     5.0677961668    -0.6024560732
 F      7.2043609732     4.6047930351    -1.3427901152
 H      5.5976848016     6.5496795194     0.1618539506
 F      6.1640978621     5.9593658979     0.5760943071
          10
Energy: -34.5336695960799 Kcal/mole
 H      3.8488045248     4.8438315259    -2.2229850784
 F      3.2454868767     5.4590381189    -1.9092691826
 H      5.9052140446     4.0454516931    -2.2238704981
 F      5.1164432539     3.8406934186    -2.6443508052
 H      3.9998779437     6.7763111570    -1.2174562524
 F      4.5472709607     7.3896324840    -0.8111474600
 H      6.9244107163     5.0722643728    -0.6052360950
 F      7.2043561932     4.6045560071    -1.3426426414
 H      5.5968285476     6.5485108742     0.1613623486
 F      6.1641432844     5.9594278918     0.5761203855
          10
Energy: -34.53390291532634 Kcal/mole
 H      3.8481248579     4.8432384064    -2.2231276433
 F      3.2455229314     5.4590695825    -1.9092616198
 H      5.9055317008     4.0475110844    -2.2254779025
 F      5.1164264029     3.8405841726    -2.6442655361
 H      4.0033408824     6.7729068031    -1.2169518957
 F      4.5470872598     7.3898130771    -0.8111742149
 H      6.9256092576     5.0712930698    -0.6041675413
 F      7.2042926133     4.6046075325    -1.3426993257
 H      5.5989562090     6.5525805029     0.1642697055
 F      6.1640304169     5.9592120074     0.5759661569
          10
Energy: -34.53364941197063 Kcal/mole
 H      3.8492595481     4.8442209240    -2.2228730065
 F      3.2454627387     5.4590174622    -1.9092751277
 H      5.9070935984     4.0447990904    -2.2270965118
 F      5.1163435479     3.8407280377    -2.6441796727
 H      4.0002867297     6.7757581752    -1.2171715413
 F      4.5472492756     7.3896618184    -0.8111625632
 H      6.9258390288     5.0724037603    -0.6047838820
 F      7.2042804245     4.6045486129    -1.3426666303
 H      5.5952375779     6.5489581871     0.1641874301
 F      6.1642276817     5.9594041629     0.5759705214
          10
Energy: -34.5333003849928 Kcal/mole
 H      3.8501333811     4.8453767445    -2.2234523939
 F      3.2454163839     5.4589561486    -1.9092443926
 H      5.9059144026     4.0443767990    -2.2246637014
 F      5.1164061015     3.8407504392    -2.6443087276
 H      4.0017420928     6.7727436320    -1.2145505973
 F      4.5471720719     7.3898217329    -0.8113015983
 H      6.9262843326     5.0732448388    -0.6051498742
 F      7.2042568021     4.6045039957    -1.3426472153
 H      5.5944567326     6.5485629357     0.1647018119
 F      6.1642691037     5.9594251300     0.5759432346
          10
Energy: -34.53356917954622 Kcal/mole
 H      3.8456654855     4.8395978426    -2.2206638231
 F      3.2456533954     5.4592627060    -1.9093923198
 H      5.9050170001     4.0484539063    -2.2249756970
 F      5.1164537066     3.8405341581    -2.6442921770
 H      4.0036084295     6.7735817683    -1.2183334046
 F      4.5470730671     7.3897772718    -0.8111009291
 H      6.9258673172     5.0711498696    -0.6039797608
 F      7.2042789238     4.6046151289    -1.3427092871
 H      5.5966209058     6.5508882590     0.1650474464
 F      6.1641542994     5.9593017770     0.5759248995
          10
Energy: -34.53385722187406 Kcal/mole
 H      3.8471698423     4.8451295079    -2.2219261887
 F      3.2439839368     5.4604952854    -1.9082691734
 H      5.9059477488     4.0447155684    -2.2248910309
 F      5.1164043325     3.8407324683    -2.6442966683
 H      4.0007646469     6.7767857064    -1.2193611663
 F      4.5472239232     7.3896073102    -0.8110464087
 H      6.9240184585     5.0719684386    -0.6051974838
 F      7.2043770015     4.6045717058    -1.3426446897
 H      5.5957714080     6.5493013585     0.1639417131
 F      6.1641993632     5.9593859584     0.5759835561
          10
Energy: -34.533767960613005 Kcal/mole
 H      3.8458019839     4.8446513732    -2.2236103413
 F      3.2440564985     5.4605206493    -1.9081798330
 H      5.9043109449     4.0474738323    -2.2231678574
 F      5.1164911612     3.8405861488    -2.6443880787
 H      4.0018797326     6.7740240070    -1.2166879511
 F      4.5471647704     7.3897538120    -0.8111882166
 H      6.9262584415     5.0725902489    -0.6047440105
 F      7.2042581756     4.6045387202    -1.3426687454
 H      5.5976278162     6.5522217256     0.1655805134
 F      6.1641008851     5.9592310397     0.5758966216
          10
Energy: -34.53316550095175 Kcal/mole
 H      3.8468676402     4.8434063777    -2.2191082581
 F      3.2439999679     5.4605866935    -1.9084186581
 H      5.9050630707     4.0433690944    -2.2225806837
 F      5.1164512627     3.8408038956    -2.6444192269
 H      3.9995269644     6.7743212409    -1.2139584865
 F      4.5472895794     7.3897380444    -0.8113330084
 H      6.9265575825     5.0723405601    -0.6044731025
 F      7.2042423069     4.6045519656    -1.3426831164
 H      5.5979626884     6.5511440152     0.1635675186
 F      6.1640831209     5.9592882097     0.5760034063
          10
Energy: -34.533445909921255 Kcal/mole
 H      3.8468372833     4.8448172912    -2.2219528342
 F      3.2440015783     5.4605118478    -1.9082677599
 H      5.9064353310     4.0418205367    -2.2244119928
 F      5.1163784674     3.8408860431    -2.6443220802
 H      4.0014441674     6.7751175241    -1.2177593943
 F      4.5471878762     7.3896958035    -0.8111313790
 H      6.9269429651     5.0742209296    -0.6055231031
 F      7.2042218632     4.6044522163    -1.3426274163
 H      5.5954645293     6.5496084694     0.1648059465
 F      6.1642156425     5.9593696669     0.5759377105
          10
Energy: -34.53369347477093 Kcal/mole
 H      3.8468242072     4.8446198528    -2.2215901491
 F      3.2440022720     5.4605223214    -1.9082869995
 H      5.9045955498     4.0452001770    -2.2225904069
 F      5.1164760636     3.8407067609    -2.6444187111
 H      4.0035652115     6.7746037080    -1.2198178543
 F      4.5470753597     7.3897230602    -0.8110221825
 H      6.9260468516     5.0731649228    -0.6051886365
 F      7.2042694000     4.6045082350    -1.3426451590
 H      5.5957791405     6.5487619941     0.1631599970
 F      6.1641989531     5.9594145705     0.5760250244
          10
Energy: -34.53360451067357 Kcal/mole
 H      3.8462996385     4.8440949430    -2.2215666511
 F      3.2440300991     5.4605501667    -1.9082882461
 H      5.9071915259     4.0455134750    -2.2276327277
 F      5.1163383530     3.8406901412    -2.6441512276
 H      4.0003820349     6.7754623257    -1.2168523385
 F      4.5472442199     7.3896775125    -0.8111794962
 H      6.9241323429     5.0697490821    -0.6037525683
 F      7.2043709602     4.6046894375    -1.3427213391
 H      5.5965762087     6.5490033194     0.1624087039
 F      6.1641566704     5.9594017687     0.5760648787
          10
Energy: -34.53338501017575 Kcal/mole
 H      3.8467822090     4.8468567279    -2.2260267942
 F      3.2440044999     5.4604036604    -1.9080516458
 H      5.9056725581     4.0458667924    -2.2249346495
 F      5.1164189308     3.8406713985    -2.6442943545
 H      4.0039989220     6.7740352259    -1.2195383293
 F      4.5470523523     7.3897532169    -0.8110370106
 H      6.9246679899     5.0722990923    -0.6051604984
 F      7.2043425454     4.6045541653    -1.3426466517
 H      5.5975357572     6.5522955873     0.1658144413
 F      6.1641057686     5.9592271215     0.5758842122
          10
Energy: -34.533674210596985 Kcal/mole
 H      3.8468413901     4.8451775796    -2.2226510721
 F      3.2440013604     5.4604927353    -1.9082307200
 H      5.9044718467     4.0467408856    -2.2231095085
 F      5.1164826257     3.8406250299    -2.6443911740
 H      4.0036319977     6.7745563868    -1.2198354355
 F      4.5470718168     7.3897255705    -0.8110212498
 H      6.9241258877     5.0732414836    -0.6059650886
 F      7.2043713027     4.6045041737    -1.3426039700
 H      5.5978954332     6.5509943494     0.1634451142
 F      6.1640866886     5.9592961492     0.5760098996
          10
Energy: -34.53355334556244 Kcal/mole
 H      3.8465481748     4.8441706695    -2.2212375626
 F      3.2440169148     5.4605461496    -1.9083057034
 H      5.9069067768     4.0444369923    -2.2265657131
 F      5.1163534583     3.8407472461    -2.6442078303
 H      4.0017087981     6.7759239432    -1.2193292600
 F      4.5471738381     7.3896530248    -0.8110481013
 H      6.9271358642     5.0739273619    -0.6052635803
 F      7.2042116304     4.6044677894    -1.3426411834
 H      5.5956796768     6.5502947948     0.1654949053
 F      6.1642042294     5.9593332589     0.5759011629
          10
Energy: -34.53348986441901 Kcal/mole
 H      3.8468451399     4.8444720181    -2.2212590324
 F      3.2440011615     5.4605301637    -1.9083045645
 H      5.9049110446     4.0466823499    -2.2239034032
 F      5.1164593273     3.8406281351    -2.6443490597
 H      3.9983385678     6.7777998787    -1.2176235925
 F      4.5473526211     7.3895535107    -0.8111385830
 H      6.9239897002     5.0709619239    -0.6045714880
 F      7.2043785271     4.6046250990    -1.3426778973
 H      5.5965787804     6.5504614591     0.1644917526
 F      6.1641565340     5.9593244178     0.5759543778
          10
Energy: -34.53327023962083 Kcal/mole
 H      3.8463575716     4.8451985217    -2.2236177259
 F      3.2440270259     5.4604916244    -1.9081794413
 H      5.9067775897     4.0457614075    -2.2269695488
 F      5.1163603114     3.8406769890    -2.6441864078
 H      3.9998421085     6.7769750870    -1.2184084256
 F      4.5472728617     7.3895972640    -0.8110969494
 H      6.9250658573     5.0737339034    -0.6059216307
 F      7.2043214394     4.6044780519    -1.3426062754
 H      5.5982144149     6.5497529120     0.1612352199
 F      6.1640697674     5.9593620046     0.5761271293
          10
Energy: -34.533634813915796 Kcal/mole
 H      3.8459518225     4.8448031118    -2.2236206842
 F      3.2440485500     5.4605126000    -1.9081792843
 H      5.9050312793     4.0463731855    -2.2239775042
 F      5.1164529491     3.8406445356    -2.6443451288
 H      3.9993721470     6.7773726897    -1.2183743209
 F      4.5472977921     7.3895761721    -0.8110987586
 H      6.9244766543     5.0714535685    -0.6046974806
 F      7.2043526953     4.6045990184    -1.3426712137
 H      5.5970564013     6.5498487624     0.1629564592
 F      6.1641311973     5.9593569199     0.5760358216
          10
Energy: -34.53359087659848 Kcal/mole
 H      3.8466458030     4.8446394157    -2.2219715727
 F      3.2440117359     5.4605212837    -1.9082667659
 H      5.9046849838     4.0446815529    -2.2225064368
 F      5.1164713193     3.8407342728    -2.6444231655
 H      4.0015170723     6.7741946132    -1.2164590532
 F      4.5471840087     7.3897447617    -0.8112003591
 H      6.9268868710     5.0708798197    -0.6034259774
 F      7.2042248389     4.6046294545    -1.3427386640
 H      5.5958313543     6.5487016156     0.1630019627
 F      6.1641961832     5.9594177734     0.5760334077
          10
Energy: -34.53363133773351 Kcal/mole
 H      3.8482331090     4.8450465725    -2.2246215812
 F      3.2443979899     5.4586277471    -1.9087255679
 H      5.9047527294     4.0464593980    -2.2234975531
 F      5.1164677256     3.8406399622    -2.6443705891
 H      4.0036999039     6.7731836248    -1.2178525227
 F      4.5470682146     7.3897983923    -0.8111264388
 H      6.9268413931     5.0712494238    -0.6036762731
 F      7.2042272514     4.6046098478    -1.3427253864
 H      5.5982378541     6.5515193511     0.1637287449
 F      6.1640685240     5.9592682990     0.5759948536
          10
Energy: -34.53372398337348 Kcal/mole
 H      3.8488230533     4.8438675898    -2.2211812794
 F      3.2443666947     5.4586902894    -1.9089080680
 H      5.9055803319     4.0475249162    -2.2255763861
 F      5.1164238232     3.8405834389    -2.6442603118
 H      4.0009122644     6.7739726784    -1.2153053331
 F      4.5472160924     7.3897565349    -0.8112615613
 H      6.9258005809     5.0697901332    -0.6031480030
 F      7.2042824640     4.6046872598    -1.3427534099
 H      5.5976155701     6.5506882098     0.1633903494
 F      6.1641015347     5.9593123892     0.5760128047
          10
Energy: -34.53336884581259 Kcal/mole
 H      3.8455472299     4.8427869754    -2.2253452987
 F      3.2445404696     5.4587476135    -1.9086871764
 H      5.9061132784     4.0456536071    -2.2256607548
 F      5.1163955516     3.8406827075    -2.6442558362
 H      4.0025902934     6.7749304710    -1.2190111459
 F      4.5471270768     7.3897057262    -0.8110649765
 H      6.9212483063     5.0732979370    -0.6071025979
 F      7.2045239517     4.6045011789    -1.3425436278
 H      5.5976709439     6.5509648145     0.1637109933
 F      6.1640985973     5.9592977159     0.5759957953
          10
Energy: -34.53357995629332 Kcal/mole
 H      3.8467856018     4.8415460697    -2.2205375665
 F      3.2444747768     5.4588134407    -1.9089422155
 H      5.9034620595     4.0478514913    -2.2256315558
 F      5.1134587940     3.8384324666    -2.6414770953
 H      4.0012482723     6.7755135732    -1.2180946705
 F      4.5471982680     7.3896747940    -0.8111135934
 H      6.9260945239     5.0699454456    -0.6031350727
 F      7.2042668710     4.6046790209    -1.3427540958
 H      5.5981575458     6.5518032967     0.1642473309
 F      6.1640727842     5.9592532364     0.5759673438
          10
Energy: -34.53363424874817 Kcal/mole
 H      3.8456810736     4.8399113589    -2.2194255964
 F      3.2445333695     5.4589001583    -1.9090012029
 H      5.9038024268     4.0454167578    -2.2250601080
 F      5.1134407383     3.8385616235    -2.6415074093
 H      4.0017178990     6.7751379743    -1.2181573809
 F      4.5471733553     7.3896947186    -0.8111102667
 H      6.9244657164     5.0710097885    -0.6044210812
 F      7.2043532755     4.6046225599    -1.3426858760
 H      5.5944792490     6.5485756195     0.1646887852
 F      6.1642679093     5.9594244572     0.5759439257
          10
Energy: -34.5335590032748 Kcal/mole
 H      3.8486502097     4.8442614831    -2.2222889873
 F      3.2443758637     5.4586693943    -1.9088493067
 H      5.9017379041     4.0478014318    -2.2223482948
 F      5.1135502565     3.8384351221    -2.6416512647
 H      4.0003833081     6.7756197414    -1.2170922855
 F      4.5472441523     7.3896691620    -0.8111667676
 H      6.9252988601     5.0732698944    -0.6055380380
 F      7.2043090792     4.6045026665    -1.3426266241
 H      5.5969488249     6.5506146045     0.1642016403
 F      6.1641369040     5.9593162938     0.5759697676
          10
Energy: -34.533615145929474 Kcal/mole
 H      3.8478145030     4.8424590910    -2.2203541426
 F      3.2444201960     5.4587650070    -1.9089519457
 H      5.9021211157     4.0465248838    -2.2224334736
 F      5.1135299280     3.8385028400    -2.6416467462
 H      4.0031049306     6.7736123377    -1.2177068885
 F      4.5470997765     7.3897756501    -0.8111341643
 H      6.9239283262     5.0731172931    -0.6059612626
 F      7.2043817828     4.6045107617    -1.3426041730
 H      5.5950897599     6.5493478104     0.1649504749
 F      6.1642355231     5.9593834943     0.5759300437
          10
Energy: -34.53355572349423 Kcal/mole
 H      3.8487961417     4.8439054501    -2.2213078822
 F      3.2443681223     5.4586882810    -1.9089013520
 H      5.9041457046     4.0432451893    -2.2246392906
 F      5.1134225282     3.8386768202    -2.6415297327
 H      4.0025387364     6.7752915778    -1.2194860517
 F      4.5471298118     7.3896865703    -0.8110397838
 H      6.9225640051     5.0706823330    -0.6049380307
 F      7.2044541569     4.6046399307    -1.3426584531
 H      5.5954217884     6.5498704100     0.1652414601
 F      6.1642179098     5.9593557716     0.5759146076
          10
Energy: -34.53375247112183 Kcal/mole
 H      3.8490222537     4.8433726512    -2.2198176132
 F      3.2443561276     5.4587165448    -1.9089804073
 H      5.9029493821     4.0439109979    -2.2227040157
 F      5.1134859904     3.8386415006    -2.6416323946
 H      4.0000773584     6.7764140226    -1.2178798881
 F      4.5472603822     7.3896270272    -0.8111249871
 H      6.9267306030     5.0729837211    -0.6048159774
 F      7.2042331285     4.6045178474    -1.3426649277
 H      5.5967518011     6.5496902259     0.1631481851
 F      6.1641473557     5.9593653299     0.5760256510
          10
Energy: -34.53400750717168 Kcal/mole
 H      3.8467761797     4.8424194232    -2.2222794681
 F      3.2444752766     5.4587671113    -1.9088498116
 H      5.9030892955     4.0449305355    -2.2234693076
 F      5.1134785683     3.8385874165    -2.6415917976
 H      4.0018113583     6.7751585664    -1.2183136656
 F      4.5471683975     7.3896936263    -0.8111019762
 H      6.9255566621     5.0715802243    -0.6043689336
 F      7.2042954034     4.6045922996    -1.3426886423
 H      5.5966956045     6.5493574666     0.1627499872
 F      6.1641503368     5.9593829820     0.5760467744
          10
Energy: -34.533812772226725 Kcal/mole
 H      3.8416284668     4.8449686931    -2.2257556987
 F      3.2418934597     5.4653823833    -1.9154433170
 H      5.9022510291     4.0461212909    -2.2224778137
 F      5.1135230364     3.8385242497    -2.6416443941
 H      4.0006276599     6.7765490014    -1.2188221014
 F      4.5472311900     7.3896198669    -0.8110750048
 H      6.9247971207     5.0733468286    -0.6057771143
 F      7.2043356953     4.6044985853    -1.3426139416
 H      5.5960354274     6.5498483569     0.1643613154
 F      6.1641853576     5.9593569414     0.5759612972
          10
Energy: -34.53353874280805 Kcal/mole
 H      3.8443149616     4.8466183190    -2.2238385902
 F      3.2417509473     5.4652948744    -1.9155450151
 H      5.9030741601     4.0467670654    -2.2243522802
 F      5.1134793712     3.8384899929    -2.6415449579
 H      4.0007650972     6.7758978825    -1.2180259578
 F      4.5472238993     7.3896544072    -0.8111172384
 H      6.9229835941     5.0713661569    -0.6052102081
 F      7.2044318987     4.6046036554    -1.3426440147
 H      5.5991023240     6.5510089914     0.1618150639
 F      6.1640226658     5.9592953724     0.5760963700
          10
Energy: -34.5332049655685 Kcal/mole
 H      3.8447118773     4.8471161160    -2.2240610040
 F      3.2417298919     5.4652684674    -1.9155332166
 H      5.9047420657     4.0417543168    -2.2250423084
 F      5.1133908927     3.8387559076    -2.6415083535
 H      4.0054225517     6.7740043941    -1.2213774293
 F      4.5469768321     7.3897548524    -0.8109394506
 H      6.9238910189     5.0726034731    -0.6056488652
 F      7.2043837619     4.6045380186    -1.3426207449
 H      5.5972276601     6.5526106280     0.1666970024
 F      6.1641221124     5.9592104093     0.5758373944
          10
Energy: -34.53365026242972 Kcal/mole
 H      3.8449550926     4.8481813650    -2.2257132562
 F      3.2417169899     5.4652119584    -1.9154455684
 H      5.9038738872     4.0449991040    -2.2249885094
 F      5.1134369475     3.8385837791    -2.6415112075
 H      4.0008185333     6.7762003351    -1.2185534391
 F      4.5472210646     7.3896383628    -0.8110892568
 H      6.9272916487     5.0756948049    -0.6063333701
 F      7.2042033663     4.6043740306    -1.3425844335
 H      5.5965119608     6.5496040132     0.1633546566
 F      6.1641600786     5.9593699033     0.5760146981
          10
Energy: -34.53385162364256 Kcal/mole
 H      3.8448869428     4.8476741633    -2.2248353302
 F      3.2417206051     5.4652388643    -1.9154921404
 H      5.9037847696     4.0433729770    -2.2240180770
 F      5.1134416750     3.8386700414    -2.6415626867
 H      4.0001966336     6.7757191911    -1.2169911663
 F      4.5472540550     7.3896638864    -0.8111721317
 H      6.9240236505     5.0731457775    -0.6059430982
 F      7.2043767261     4.6045092506    -1.3426051366
 H      5.5970640043     6.5515743206     0.1654242437
 F      6.1641307940     5.9592653830     0.5759049113
          10
Energy: -34.53354025454635 Kcal/mole
 H      3.8432065869     4.8455963318    -2.2239501200
 F      3.2418097441     5.4653490885    -1.9155390987
 H      5.9046659083     4.0450629510    -2.2265269618
 F      5.1133949326     3.8385803922    -2.6414295961
 H      4.0019617943     6.7755500497    -1.2191048985
 F      4.5471604173     7.3896728590    -0.8110600031
 H      6.9238579518     5.0703933072    -0.6042625941
 F      7.2043855160     4.6046552628    -1.3426942834
 H      5.5943354631     6.5479447663     0.1639854277
 F      6.1642755368     5.9594579225     0.5759812372
          10
Energy: -34.533910075247604 Kcal/mole
 H      3.8428160551     4.8455785155    -2.2246746920
 F      3.2418304609     5.4653500336    -1.9155006619
 H      5.9037187742     4.0427557462    -2.2235912744
 F      5.1134451759     3.8387027841    -2.6415853275
 H      4.0027767541     6.7758996033    -1.2207155153
 F      4.5471171855     7.3896543160    -0.8109745636
 H      6.9242263394     5.0717768186    -0.6049970890
 F      7.2043659739     4.6045818708    -1.3426553202
 H      5.5975948981     6.5501292519     0.1626187830
 F      6.1641026313     5.9593420406     0.5760537345
          10
Energy: -34.53358791742312 Kcal/mole
 H      3.8445606523     4.8465174152    -2.2231549743
 F      3.2417379140     5.4653002271    -1.9155812794
 H      5.9043753453     4.0442382792    -2.2255645572
 F      5.1134103463     3.8386241391    -2.6414806495
 H      4.0008628187     6.7776985757    -1.2208586589
 F      4.5472187154     7.3895588846    -0.8109669702
 H      6.9249609953     5.0696069353    -0.6033494803
 F      7.2043270021     4.6046969780    -1.3427427220
 H      5.5958525273     6.5479738668     0.1619366492
 F      6.1641950601     5.9594563788     0.5760899201
          10
Energy: -34.53364155575409 Kcal/mole
 H      3.8447981532     4.8473610047    -2.2243827441
 F      3.2417253151     5.4652554767    -1.9155161490
 H      5.9022131412     4.0436651039    -2.2211996988
 F      5.1135250463     3.8386545447    -2.6417121951
 H      4.0004695939     6.7781013529    -1.2209353445
 F      4.5472395750     7.3895375182    -0.8109629022
 H      6.9246338063     5.0720915394    -0.6050418645
 F      7.2043443587     4.6045651755    -1.3426529449
 H      5.5984865582     6.5508531905     0.1624332012
 F      6.1640553308     5.9593036373     0.5760635792
          10
Energy: -34.5333651731826 Kcal/mole
 H      3.8427263596     4.8465284413    -2.2267444253
 F      3.2418352190     5.4652996422    -1.9153908673
 H      5.9028561639     4.0408807363    -2.2210585134
 F      5.1134909354     3.8388022490    -2.6417196847
 H      4.0011374841     6.7749299874    -1.2170635508
 F      4.5472041450     7.3897057518    -0.8111682919
 H      6.9291954625     5.0755458539    -0.6055250481
 F      7.2041023734     4.6043819321    -1.3426273131
 H      5.6012830046     6.5522172978     0.1645766542
 F      6.1711037467     5.9634587777     0.5763493183
          10
Energy: -34.5339381343783 Kcal/mole
 H      3.8439457777     4.8473382327    -2.2259958062
 F      3.2417705317     5.4652566847    -1.9154305798
 H      5.9024548718     4.0461133849    -2.2228576940
 F      5.1135122230     3.8385246691    -2.6416242423
 H      4.0021535844     6.7754858596    -1.2192644598
 F      4.5471502432     7.3896762641    -0.8110515388
 H      6.9272425296     5.0725313530    -0.6043367285
 F      7.2042059720     4.6045418444    -1.3426903508
 H      5.6021187356     6.5521409275     0.1633138939
 F      6.1710594131     5.9634628290     0.5764163048
          10
Energy: -34.53403017508796 Kcal/mole
 H      3.8428103418     4.8463189978    -2.2261654531
 F      3.2418307639     5.4653107527    -1.9154215804
 H      5.9036409416     4.0413208046    -2.2227471222
 F      5.1134493048     3.8387789044    -2.6416301079
 H      4.0058343686     6.7719742577    -1.2232230170
 F      4.5539151706     7.3847371750    -0.8169988896
 H      6.9272450935     5.0729097331    -0.6045757377
 F      7.2042058360     4.6045217723    -1.3426776719
 H      5.6016300605     6.5506874909     0.1619212128
 F      6.1710853362     5.9635399304     0.5764901833
          10
Energy: -34.53395992322089 Kcal/mole
 H      3.8439105117     4.8465718905    -2.2245348106
 F      3.2417724025     5.4652973373    -1.9155080823
 H      5.9037097397     4.0462942179    -2.2253211170
 F      5.1134456552     3.8385150763    -2.6414935634
 H      4.0062767453     6.7712754563    -1.2227646194
 F      4.5538917035     7.3847742448    -0.8170232065
 H      6.9254898378     5.0755553757    -0.6069243780
 F      7.2042989483     4.6043814270    -1.3425530819
 H      5.6015258513     6.5514706076     0.1631762646
 F      6.1710908642     5.9634983879     0.5764236057
          10
Energy: -34.53423125415827 Kcal/mole
 H      3.8438016174     4.8470309817    -2.2256636213
 F      3.2417781791     5.4652729836    -1.9154482015
 H      5.9035165221     4.0452928847    -2.2244565525
 F      5.1134559049     3.8385681947    -2.6415394265
 H      4.0059429677     6.7720673029    -1.2235097594
 F      4.5539094096     7.3847322392    -0.8169836786
 H      6.9280730504     5.0739476483    -0.6049250496
 F      7.2041619148     4.6044667132    -1.3426591417
 H      5.6036665229     6.5528420012     0.1621865630
 F      6.1709773065     5.9634256387     0.5764761071
          10
Energy: -34.53402768449007 Kcal/mole
 H      3.8436627383     4.8467301819    -2.2253332900
 F      3.2417855463     5.4652889403    -1.9154657248
 H      5.8988881688     4.0471438280    -2.2197468144
 F      5.1096434810     3.8420798099    -2.6391875983
 H      4.0052491758     6.7718370909    -1.2222248032
 F      4.5539462137     7.3847444514    -0.8170518425
 H      6.9289236609     5.0748139463    -0.6051591058
 F      7.2041167919     4.6044207581    -1.3426467255
 H      5.6007413743     6.5513851986     0.1641379341
 F      6.1711324789     5.9635029187     0.5763725914
          10
Energy: -34.53421843051922 Kcal/mole
 H      3.8456069027     4.8495307606    -2.2271223424
 F      3.2416824128     5.4651403761    -1.9153708197
 H      5.9025534624     4.0505251491    -2.2277507288
 F      5.1127154359     3.8473670836    -2.6470020761
 H      4.0054118555     6.7721350009    -1.2228950255
 F      4.5539375839     7.3847286479    -0.8170162888
 H      6.9289342531     5.0720865808    -0.6034230150
 F      7.2041162300     4.6045654386    -1.3427388211
 H      5.6026408229     6.5499393575     0.1594828118
 F      6.1710317175     5.9635796172     0.5766195348
          10
Energy: -34.534272366905526 Kcal/mole
 H      3.8433425801     4.8471826953    -2.2268540128
 F      3.2418025299     5.4652649356    -1.9153850539
 H      5.9013694166     4.0520108278    -2.2262473669
 F      5.1127782468     3.8472882717    -2.6470818260
 H      4.0067654105     6.7705879597    -1.2223835170
 F      4.5538657809     7.3848107149    -0.8170434231
 H      6.9269843398     5.0730394728    -0.6047559958
 F      7.2042196684     4.6045148899    -1.3426681096
 H      5.6021362559     6.5520069591     0.1630989391