          10
Energy: -34.16719076070905 Kcal/mole
 H      3.8115038033     3.6886455186     0.8787077171
 F      4.0838326495     2.8383254557     0.6697058267
 H      2.9697089452     5.4825612354     0.3236545907
 F      3.3851186221     5.2431370323     1.1053193854
 H      5.0443536341     3.0459472511    -0.6767140293
 F      5.4885461367     3.3523152994    -1.4181455093
 H      2.7991535195     5.2225016474    -1.9609146468
 F      2.3451870698     5.6079766460    -1.2636252607
 H      4.3586827146     3.9219705456    -2.6017136465
 F      3.6536654441     4.2861121351    -3.0613227751
          10
Energy: -33.054208181631964 Kcal/mole
 H      3.8239831637     6.2556104126     0.3706195858
 F      4.7143335663     6.2393241833     0.1517590839
 H      1.6540637337     5.4881945259    -0.1123644896
 F      1.9862560062     6.1803814724     0.3890480404
 H      5.2187944498     5.3885612199    -1.3356897734
 F      5.1158405459     5.0319396863    -2.1742066638
 H      1.7940419716     4.1828523781    -1.7445391419
 F      1.3064683143     4.1330100730    -0.9695058050
 H      3.6398989256     4.7066103757    -2.8910216288
 F      2.7455727346     4.5749453666    -3.0450800253
          10
Energy: -34.128162568364075 Kcal/mole
 H      3.5592561264     5.8069274805     0.0846327246
 F      4.3719943012     6.1979588868     0.2502832554
 H      2.4530723628     4.0374596257    -0.7213269655
 F      2.2156423107     4.8174848332    -0.3017120872
 H      5.6168412585     5.0690534654     0.4354910461
 F      6.1421621481     4.3174918908     0.4445554010
 H      3.8433458008     2.3738752689    -0.5679479937
 F      3.3342405037     2.6907359600    -1.2617059478
 H      5.3443614922     2.8312011155     0.7118332275
 F      4.8408951760     2.0649847367     0.6938574322
          10
Energy: -33.683065459660156 Kcal/mole
 H      2.8366109081     4.8131374807     1.2060580136
 F      3.3836968477     5.5490622519     1.2068981428
 H      2.2597623933     2.8260751107     0.5443646349
 F      1.8646380872     3.4995464036     1.0251995342
 H      4.0298922393     5.4882717831    -0.2929312811
 F      4.2778190890     5.1663932156    -1.1150112438
 H      3.8333744321     1.9528878312    -0.6737369302
 F      2.9725713191     1.7455005653    -0.4352049144
 H      5.0529587237     3.6692730600    -1.0417481089
 F      5.3572660051     2.8195755512    -0.8795746770
          10
Energy: -33.95689583318509 Kcal/mole
 H      2.8446482063     2.6264349540     3.0669023029
 F      3.6917739571     2.7413720784     3.3986498268
 H      1.8126016631     1.9343800843     1.4280476042
 F      1.4787318649     2.3818262336     2.1555171233
 H      4.5452881985     3.7811730083     2.2770742903
 F      4.8837412360     4.3292717180     1.6244439617
 H      3.2457528754     1.9606641516    -0.1837160902
 F      2.7971218569     1.2723167321     0.2234657358
 H      4.4829238093     3.6858138432     0.0973700634
 F      4.2378882084     3.2290242700    -0.6590622470
          10
Energy: -33.752462262628825 Kcal/mole
 H      4.8530708128     3.9707708409     1.3800710921
 F      5.6176882915     4.3778579335     1.0791903678
 H      3.2443266849     2.2694509897     1.0873800785
 F      3.5296911461     2.9296818749     1.6561957802
 H      6.6729963193     3.1730558060     0.7341212389
 F      7.1260851450     2.3872560914     0.5995169125
 H      4.0964722350     0.9107894757    -0.4588240404
 F      3.2643757442     1.1183932368    -0.1341625113
 H      6.2443862198     1.2952450468    -0.3869491496
 F      5.7511704741     0.7011718580    -0.8816250783
          10
Energy: -33.17893443369138 Kcal/mole
 H      4.5745415301    -0.1981844959     1.3327508998
 F      5.3548507459    -0.6648220140     1.4521492010
 H      3.2530745186     1.0761814581     0.1429528705
 F      3.2369305977     0.7959334242     1.0159301974
 H      6.6659659936    -0.6140644115     0.5143072322
 F      7.2834603844    -0.4420779969    -0.1414445124
 H      4.2645411001     1.2864603947    -1.6176330705
 F      3.3873514951     1.4405167139    -1.3992434018
 H      6.5005910972     0.6837658494    -1.1813535823
 F      5.9225016779     1.0981607726    -1.7601268289
          10
Energy: -33.103142696948396 Kcal/mole
 H      5.8648266008    -0.2571029225     1.3347074422
 F      6.7130952323    -0.5845653541     1.2159737708
 H      3.8339427952     0.6696960396     0.6187238281
 F      4.2244464321     0.1283165028     1.2474559703
 H      6.8256418190    -1.1026095424    -0.3550092367
 F      6.7828923243    -1.2169360642    -1.2638496666
 H      4.1085476746     1.2591790286    -1.3954910083
 F      3.3901540971     1.4169211847    -0.8478441513
 H      5.8804160725     0.1322946051    -1.9900071211
 F      5.5725715620     0.9418350060    -2.2912795834
          10
Energy: -33.83604196981068 Kcal/mole
 H      6.9683407945     0.1020467603     1.7724424275
 F      6.7353316364    -0.7792211540     1.8722552294
 H      6.1689284360     1.9233693398     1.0355512825
 F      6.9403024640     1.7537440036     1.5014894267
 H      5.7192955041    -1.7676475130     0.9017665933
 F      5.0685724199    -2.1636350183     0.3912351414
 H      4.2442863097     1.2592090823     0.0538840295
 F      4.8276805414     1.9654065162     0.0111598578
 H      3.8752489048    -0.9092712921     0.2314071375
 F      3.3733817250    -0.1441484890     0.2914523706
          10
Energy: -34.0600686091837 Kcal/mole
 H      6.2002246890     0.1288801835     1.2519619540
 F      6.1400244793    -0.7266168142     0.9273239682
 H      5.4085369919     2.0674298876     1.0338944778
 F      5.9525427549     1.7233934488     1.6870297307
 H      4.7176319465    -1.3621378884     0.4869240703
 F      3.8691220312    -1.6080748289     0.2410888718
 H      3.9285729097     1.7389019522    -0.6800038208
 F      4.4871965209     2.3827351889    -0.3419100109
 H      3.3104635479    -0.3991573043    -0.7234473643
 F      3.0451579207     0.3529996870    -1.1759534799
          10
Energy: -34.12721228238158 Kcal/mole
 H      4.4316742502    -0.9433392713     1.0848604228
 F      3.6199569323    -1.0346412156     1.5015952914
 H      5.4982033984     0.1309598762    -0.3722038530
 F      5.6787623682    -0.6429490242     0.0853466604
 H      2.6589321656    -1.6241595448     0.3426974457
 F      2.1706961974    -1.8588396916    -0.3971943491
 H      3.8245684175     1.1110627616    -1.4027254289
 F      4.6507028317     1.3893068106    -1.1181710775
 H      2.1861639568    -0.5041823985    -1.3512403955
 F      2.3747828156     0.2603760159    -1.8210939440
          10
Energy: -33.83573174789973 Kcal/mole
 H      5.2221782121    -0.7348775979     0.1212040502
 F      4.7897769377    -1.5403068232     0.1933282554
 H      5.0927592978     1.6620537273     0.1933208701
 F      5.6923150624     0.9775953207     0.0795730142
 H      3.1877147042    -1.1149384454     0.4433736662
 F      2.3671353968    -0.7688329120     0.6618903932
 H      3.0452161040     2.3727184533    -0.0799319787
 F      3.8051203626     2.6925100485     0.3215251838
 H      2.0426242440     0.5497063817    -0.3124951138
 F      1.9416891137     1.3013021454    -0.8280578233
          10
Energy: -33.820349791554435 Kcal/mole
 H      4.7028634423     0.7929841533    -2.2661497248
 F      4.2599687526     0.2508921182    -2.8584921252
 H      4.6666215428     2.8912112089    -1.5447087948
 F      5.0562565439     2.1196004908    -1.2386198118
 H      2.7025592204     0.3616183055    -2.3297995135
 F      1.8694427180     0.5100137082    -1.9765507372
 H      3.0517375537     3.9829653050    -2.3020606844
 F      3.9508014425     4.1628917418    -2.2879326540
 H      1.5005602642     2.2307181436    -2.1188908181
 F      1.5231923160     3.1393679485    -2.2402675963
          10
Energy: -33.86566754646276 Kcal/mole
 H      5.0493519252     1.7615584460    -2.1453728755
 F      4.7473407713     0.9701040734    -1.7942628655
 H      4.7303057784     3.9315812353    -1.8781925401
 F      5.2355802398     3.4474301888    -2.4708007436
 H      3.0550049443     0.8318529581    -1.6114917105
 F      2.1416648621     0.8503481050    -1.5317620195
 H      2.8283854023     4.2169536129    -1.0226994791
 F      3.6289510415     4.5933134670    -0.7811691133
 H      1.5959126485     2.4476592249    -1.3554476876
 F      1.4684267307     3.3483724246    -1.2398965192
          10
Energy: -33.489056815714065 Kcal/mole
 H      4.8974877551     1.2576635543    -1.3454485837
 F      4.4623495128     1.2275021229    -2.1520674517
 H      5.5457228772     2.6144037271     0.3148752520
 F      5.6950654297     1.7357092869     0.0992786778
 H      2.9606263753     2.1968340330    -2.1391647789
 F      2.2807816441     2.8121799928    -2.1321297756
 H      3.9777489947     4.0963759990     0.4696276604
 F      4.8902301171     4.1818604289     0.4386500325
 H      2.1871116923     3.3208961933    -0.5749941578
 F      2.4191945895     3.5287575228     0.2874559547
          10
Energy: -33.891709851856234 Kcal/mole
 H      5.5095801281     1.3276974740    -2.7854402507
 F      4.8410254064     1.0434986910    -3.3450424629
 H      5.9909868248     1.9465160315    -0.7563440105
 F      6.4527730168     1.9547613840    -1.5485400260
 H      3.5051847949     1.9133867540    -2.8964185551
 F      2.8837748489     2.5339398209    -2.6325008216
 H      4.2289092085     2.2747724584     0.4425069019
 F      5.0946655931     2.0036246411     0.5760499426
 H      2.7269302553     2.6982129155    -1.0251750200
 F      2.7525136358     2.8194291950    -0.1165820945
          10
Energy: -33.83077184963622 Kcal/mole
 H      6.0246473090     1.5803673604    -1.9804526160
 F      5.4275823757     1.4891555866    -2.6704402084
 H      6.3643191230     2.4098331038     0.0372272941
 F      6.8694321962     2.0336660129    -0.6292921002
 H      4.1264050095     2.4380809617    -2.3832789280
 F      3.4937342433     2.9683201348    -1.9839505907
 H      4.6839572881     2.9311678885     1.0951043266
 F      5.5610016218     3.1446209921     1.2567211861
 H      3.1859478021     2.5697700282    -0.3558780569
 F      3.2045198879     2.3610009547     0.5368478538
          10
Energy: -34.12047386248841 Kcal/mole
 H      5.0748697600     3.7301049958    -3.4503253061
 F      5.3366280674     2.8516170591    -3.4252148792
 H      4.2054337177     5.4250662508    -2.2969902500
 F      4.3705944448     5.1841562137    -3.1662274376
 H      4.1072682774     2.0122105417    -2.6264234626
 F      3.4156681893     1.6635570283    -2.1354865566
 H      3.6029071442     4.7697882813    -0.3267479702
 F      3.9694595216     5.5558061808    -0.6245805008
 H      3.1844520197     2.5152961905    -0.7342942066
 F      3.1605466168     3.1172263855    -0.0429205218
          10
Energy: -34.24491215443885 Kcal/mole
 H      5.7229273757     4.1190887469    -1.7721999151
 F      5.4685851371     3.4634812717    -2.3607386684
 H      4.8929351427     5.3405990035    -0.1784270511
 F      5.6956399141     5.3317007696    -0.6216819116
 H      4.1687622788     4.0086659334    -3.3439569903
 F      3.4028843526     4.3899827891    -3.6739834402
 H      2.7850748065     4.7838486721    -0.3066800098
 F      3.3321855392     5.1288842550     0.3433271384
 H      2.3820853376     4.2739570026    -2.4018206657
 F      1.9199615561     4.2018625431    -1.6130665852
          10
Energy: -33.62525582651642 Kcal/mole
 H      6.1144572988     4.1082335183    -1.3063835422
 F      6.1137050099     4.2960210371    -2.2039492957
 H      5.4369252628     4.8530863131     0.5684638060
 F      5.6241989561     3.9874175911     0.3309028083
 H      4.4827521516     4.3728606651    -2.6683619898
 F      3.5657770483     4.3661613916    -2.6674790143
 H      4.1384283312     6.5151708925     0.0884678174
 F      4.8540346400     6.3716627935     0.6436272865
 H      3.0493517582     5.7417443704    -1.6729770905
 F      2.8876828009     6.4058164450    -1.0616175989
          10
Energy: -34.09424396911547 Kcal/mole
 H      5.8621625313     3.8872520410    -0.7999991936
 F      5.5825826662     3.6731978708    -1.6467015682
 H      5.2662792616     4.3068968612     1.1777663944
 F      6.1019925376     4.2753057833     0.8016356670
 H      4.1717342379     4.3593429929    -2.1666872906
 F      3.3861259816     4.8295167220    -2.2181200815
 H      3.2332685913     5.1197467902     1.0213677631
 F      3.6454735899     4.4730424625     1.5241097960
 H      2.8843225030     5.7370870459    -0.8626432753
 F      2.6769174846     6.1955878446    -0.0960604840
          10
Energy: -33.702985152937515 Kcal/mole
 H      4.5029222012     5.5929848372     0.3725173236
 F      4.4305708614     5.9032474073    -0.4873614011
 H      4.1312300035     4.0273827634     1.9536732132
 F      4.6581358877     4.7682501382     1.8337785841
 H      3.4914121852     4.7578462514    -1.4092962563
 F      2.9572105964     4.1199179103    -1.7947376840
 H      2.4220346398     3.1160647603     1.4466445547
 F      3.0947317649     2.8063550363     1.9874286750
 H      1.8631204344     3.9976413891    -0.4874210984
 F      1.4898374319     3.9320536786     0.3475921064
          10
Energy: -34.001359352937556 Kcal/mole
 H      4.6215560055     5.9782379921     0.5273577515
 F      4.1148205609     6.5883259862     0.0670308800
 H      4.7175532840     4.1625619189     1.5158116895
 F      5.3773660715     4.6791828762     1.1434692773
 H      2.9875588801     5.7170276352    -0.8649599063
 F      2.3941460982     5.1473541610    -1.2702035405
 H      2.7167476804     3.1991808879     1.4597649512
 F      3.4227068784     3.3168449074     2.0330587583
 H      1.6901837225     3.8400072410    -0.3803809430
 F      1.5235467170     3.2426122002     0.2950746615
          10
Energy: -33.88321961178906 Kcal/mole
 H      4.5389709405     6.3926880350    -0.4369346785
 F      3.8163979070     6.9375236981    -0.5850269180
 H      5.2112656043     4.3928168019    -0.4261910628
 F      5.6705344610     5.1831197841    -0.3528268111
 H      2.5948809464     6.3894313930    -1.7185376414
 F      1.9433738938     5.9388569191    -2.1805010641
 H      3.4898163313     3.1559873241    -1.2889481362
 F      3.9570166717     3.2110440173    -0.5018130763
 H      2.3519249010     4.3231924384    -2.5649071602
 F      2.6433910104     3.4649739662    -2.7041822873
          10
Energy: -34.0816250384178 Kcal/mole
 H      4.4133575868     6.3681691699    -2.0297396791
 F      4.0102508650     6.8990336634    -1.3999961914
 H      5.1314659246     4.4584559316    -2.1517325225
 F      5.0096524682     5.0008056373    -2.8810522594
 H      2.5865739452     6.2793957567    -0.9009735576
 F      1.8127165523     5.8289208025    -0.7032210578
 H      4.2245234336     3.4631266611    -0.4101325231
 F      5.0895930969     3.6189873548    -0.6713812969
 H      2.1931802880     4.2564285045    -0.2170438717
 F      2.5764678286     3.4343346775    -0.0823538538
          10
Energy: -33.83989974258421 Kcal/mole
 H      4.9648326771     6.2943322634    -2.2527615293
 F      4.6333479072     6.9037993100    -1.6531310044
 H      5.0082532400     4.2906908709    -2.6926674096
 F      5.3075304864     5.0181849577    -3.1639152038
 H      2.9871687080     6.5789940208    -1.5540160974
 F      2.1620765742     6.1823663719    -1.6069167485
 H      3.7095966442     3.4435893491    -0.9268687705
 F      4.4420620223     3.2693296134    -1.4503351156
 H      2.1581345994     4.8294389196    -0.6621909140
 F      2.4113595617     4.1200309532    -0.1392124673
          10
Energy: -34.19919174269944 Kcal/mole
 H      5.1207592177     5.6865089998    -3.0917348950
 F      4.5522675693     6.4027279756    -3.1605580339
 H      5.4503621222     3.7641660094    -2.2515632412
 F      5.9321449104     4.2705104788    -2.8451873842
 H      3.8652574552     6.9566252301    -1.7244631972
 F      3.5595794631     7.1085025550    -0.8733561279
 H      4.4572070501     3.8133233263    -0.4271098300
 F      4.4492708598     3.1932756269    -1.1026591379
 H      4.0847200129     5.9475011747     0.1866782375
 F      4.4851192520     5.2142916558     0.5647962755
          10
Energy: -33.98057720760437 Kcal/mole
 H      6.9020205573     5.4970344383    -2.0836772281
 F      7.1369335853     6.2791811917    -1.6666025041
 H      5.4352382011     3.7116181616    -2.1557392352
 F      6.1390519042     4.0346985837    -2.6468138854
 H      5.7716228078     7.1044857997    -1.2660920244
 F      4.9712686918     7.4118637745    -0.9407597793
 H      4.1040621815     4.0754605212    -0.5943904222
 F      4.2258546052     3.3470305787    -1.1379393384
 H      4.2840151089     6.2546374186    -0.0902464391
 F      3.9081131617     5.5003007123     0.2710883912
          10
Energy: -34.14068263597676 Kcal/mole
 H      6.8294157800     4.4385375541    -1.9808961287
 F      6.5686123094     5.2596516468    -2.2949696816
 H      6.2906772104     2.7941153960    -0.9611191684
 F      7.1167247764     3.0489345067    -1.2670630186
 H      6.0965842222     6.2969551042    -0.9756770245
 F      5.6710540029     6.6794104251    -0.2590593022
 H      4.4602451713     3.3602268692     0.0836908651
 F      4.7378453646     2.6214061851    -0.3831829181
 H      4.6736657520     5.5640903925     0.5035299502
 F      4.1694585654     4.8642783669     0.8148613522
          10
Energy: -34.17777206018397 Kcal/mole
 H      5.1115535618     4.5184799807    -2.7651964427
 F      4.8039729181     5.3710599952    -2.9044460973
 H      5.1121518402     2.7604312817    -1.4941907318
 F      5.5696780034     2.9977475105    -2.2526363908
 H      5.1000631636     6.4853418684    -1.6601191308
 F      5.2413033921     6.9015094875    -0.8552932424
 H      4.4479183624     3.6352013037     0.4032766496
 F      4.2813095896     2.8499208484    -0.0399672147
 H      4.8404960696     5.8366187802     0.3759802263
 F      4.7054862270     5.1931586761     1.0152144845
          10
Energy: -34.0005810420638 Kcal/mole
 H      4.6838456577     4.5089280449    -3.5064271715
 F      4.6995536985     5.4232040291    -3.5752870450
 H      4.9906492255     2.6706086582    -2.1844572592
 F      4.7379842777     2.8370489398    -3.0501056040
 H      4.2188715827     5.9038867499    -2.0114588885
 F      4.0321190204     6.0104617241    -1.1200250685
 H      5.5858630197     3.2891043999    -0.1681079468
 F      5.4910223763     2.4998507130    -0.6252434520
 H      5.0362134016     5.3051653124     0.0944185936
 F      5.6762127321     4.8009249099     0.5151696761
          10
Energy: -34.185382290629605 Kcal/mole
 H      5.0266182077     4.6431868238    -2.6575235184
 F      4.5062477467     5.3681503590    -2.4464987423
 H      5.8073101875     2.8885692328    -1.8320986479
 F      5.9701046894     3.2408958688    -2.6629132431
 H      5.2797183480     6.2238626443    -1.1703982189
 F      5.7389025166     6.5630567580    -0.4527727926
 H      5.7379862907     3.1644468990     0.3484140673
 F      5.5450505506     2.4661211271    -0.2137299679
 H      6.0039082792     5.3475656111     0.6038246057
 F      6.0627780988     4.6147546027     1.1519225626
          10
Energy: -34.19481911069661 Kcal/mole
 H      5.4845070953     5.2174861468    -2.6242342348
 F      5.0367357921     6.0177274065    -2.6222884013
 H      5.9881706431     3.2312534972    -1.8936086240
 F      6.3967040202     3.8299931998    -2.4553027119
 H      4.1915456884     6.1835180136    -1.2069893465
 F      3.7647639229     6.1189720415    -0.3979280743
 H      4.9602795048     2.9481503271    -0.0573645720
 F      5.1698513905     2.3788118943    -0.7449853786
 H      4.1964089120     4.8571059156     0.6327731811
 F      4.5865464967     4.1214116374     1.0167466100
          10
Energy: -34.159965372154716 Kcal/mole
 H      6.5044737946     5.3233041021    -2.1495033520
 F      5.9044908912     5.9891872998    -2.3431759690
 H      6.8447393823     3.3648638514    -1.1106699881
 F      7.3480549897     3.9066566178    -1.6529088632
 H      4.4881439538     5.9917340785    -1.4121858873
 F      3.7681524650     5.9159982591    -0.8493667851
 H      4.8862267415     2.8198725084    -0.3012201123
 F      5.7438802858     2.6389737258    -0.0317854662
 H      3.4774835132     4.2525146276    -0.9105961484
 F      3.4630129693     3.3378899255    -0.9749487514
          10
Energy: -34.162707316882546 Kcal/mole
 H      5.5989712134     4.9393736108    -2.6911810972
 F      5.0465827708     5.6713229031    -2.6936794775
 H      6.0491454291     2.9196738519    -1.9399343915
 F      6.3884213758     3.5147590380    -2.5495690799
 H      3.6937358623     5.4176330622    -1.7168395566
 F      3.0449958304     5.2045146102    -1.1047889896
 H      5.0092951597     2.5942210563    -0.1494084754
 F      5.4175319935     2.0355894107    -0.7512077543
 H      3.7429564852     4.2531153726     0.1461187648
 F      4.2239531128     3.7379851722     0.7327806103
          10
Energy: -34.243754094421234 Kcal/mole
 H      5.2827185560     4.9429658736    -2.9407072475
 F      4.6313095107     5.5881818735    -2.9248463152
 H      6.3082539854     3.3147356980    -1.7543360543
 F      6.3749142185     3.6803287763    -2.5926600457
 H      3.5744997010     5.3495560402    -1.6745237716
 F      3.1950333981     5.1215146927    -0.8714724228
 H      5.7107775577     3.4179194732     0.2470238263
 F      6.0658026646     2.7181364650    -0.2274758205
 H      4.3425790920     4.9851298738     0.3647127800
 F      5.0686124153     4.8097155954     0.8966850014
          10
Energy: -34.32465163335422 Kcal/mole
 H      5.0262317902     4.4743343950    -2.3127753955
 F      5.3078175270     5.3305541982    -2.1439970751
 H      4.8415707673     2.6247761003    -1.5068310546
 F      4.4476331234     2.9152340562    -2.2822898275
 H      4.7717893481     5.9588337089    -0.6892003355
 F      4.4709586146     6.1905674633     0.1454788465
 H      4.9543859726     2.9611571248     0.6243029179
 F      5.4644401794     2.4774031713     0.0354771213
 H      4.1017703110     4.8337524847     1.0995239600
 F      3.9434040227     3.9938800671     1.4318241872
          10
Energy: -34.18007288083194 Kcal/mole
 H      5.7534676714     4.1689451144    -2.1342111817
 F      6.0336756467     5.0234114764    -1.9546012525
 H      5.3068500852     2.4172669084    -1.2064525314
 F      5.1154704491     2.6485180907    -2.0729314553
 H      4.8665500304     5.9216987759    -1.0988310377
 F      4.2022072726     6.2050977721    -0.5338330651
 H      4.8830453589     3.0206485649     0.8794314635
 F      5.4703719187     2.4188333861     0.5137061529
 H      3.8811958922     5.0242981633     0.5827720704
 F      3.8032824080     4.3011544845     1.1412357745
          10
Energy: -34.15251812001 Kcal/mole
 H      5.7183655427     4.5474672238    -2.0709560240
 F      6.0005740821     5.4197361229    -2.0510988374
 H      5.0503577243     2.8315622910    -0.8859664316
 F      5.1365354044     3.0418288094    -1.7743640896
 H      4.9079840674     6.0694865673    -0.9600435615
 F      4.2959631586     6.1869651411    -0.2873488373
 H      4.9880856247     3.4619471570     1.2108569290
 F      4.9714902296     2.6799924343     0.7321499157
 H      4.8210371800     5.4923841393     1.1487842140
 F      5.0653291287     4.9487148951     1.8456588059
          10
Energy: -34.36691448929895 Kcal/mole
 H      6.9420723025     4.3960663046    -1.9315258149
 F      7.1683613884     5.2742990875    -1.7959181879
 H      6.1317358700     2.5283890111    -1.2228716432
 F      6.4110830065     2.8402343664    -2.0387188419
 H      6.0112714959     5.9737540033    -0.8135062831
 F      5.3239767233     6.1472677557    -0.2317779331
 H      5.6683232098     3.0163520625     0.9202986131
 F      5.6234658814     2.2856723486     0.3680450701
 H      5.6217559731     5.1866982262     1.0610210538
 F      5.7899008694     4.5046047937     1.6503977103
          10
Energy: -33.97066036079005 Kcal/mole
 H      6.0462765706     4.5063494143    -2.3676726449
 F      5.9640297603     5.4168431680    -2.4392658469
 H      5.4976222720     2.5830456877    -1.3562867633
 F      6.0326269035     2.8646858787    -2.0457342573
 H      5.1856735180     5.9150734072    -1.0918312638
 F      4.7947610759     6.1578339740    -0.2986454281
 H      5.0126467318     3.0771640403     0.6260303071
 F      4.6936136252     2.4277481676     0.0626779297
 H      5.4964270613     5.1019720875     0.8526270428
 F      5.8588505852     4.3724832491     1.2737971082
          10
Energy: -34.12942859894588 Kcal/mole
 H      6.2334893074     4.1848696157    -1.8728001765
 F      5.9985215974     5.0707305537    -1.8423112625
 H      6.2010633622     2.3656758744    -0.8611482073
 F      6.6521398325     2.6359267745    -1.6124028040
 H      6.8002691333     5.7508960628    -0.5393079156
 F      7.1243147322     5.9020217216     0.3051116988
 H      5.5335436535     2.8089077601     1.1126089228
 F      5.3325440340     2.1222939991     0.5389803879
 H      6.4714194263     4.9012887199     1.3803369801
 F      6.0525938354     4.2773668962     1.9058802061
          10
Energy: -34.2941824234716 Kcal/mole
 H      5.8216468809     4.1552112135    -2.1449105579
 F      5.8152633878     5.0576501447    -1.9822691537
 H      5.8944055684     2.1281154015    -1.4836344612
 F      5.8557355257     2.5364599657    -2.3037858769
 H      6.6559704655     5.3922097804    -0.6079444942
 F      7.0973999970     5.4834477985     0.1906195876
 H      6.1084380673     2.3086622172     0.7817132544
 F      6.0005407329     1.6654272068     0.1371235503
 H      6.6194774684     4.3627517977     1.2607580732
 F      6.2761975940     3.6604470266     1.7401492874
          10
Energy: -34.379668518312656 Kcal/mole
 H      7.0008550740     4.4105205954    -2.4013974818
 F      6.9305550879     5.3138890607    -2.2604282375
 H      7.0073934827     2.3369897335    -1.5162653146
 F      7.0232924536     2.7201864279    -2.3492098002
 H      7.1621301624     5.6975222138    -0.6597382144
 F      7.3072793413     5.7723000210     0.2426081689
 H      6.4338403525     2.5099080072     0.5237278157
 F      6.9001701353     1.8581009375     0.0781124237
 H      6.3305150196     4.6328009903     0.9662569911
 F      5.7958671589     3.9106747496     1.1494900600
          10
Energy: -34.29057535129698 Kcal/mole
 H      6.4381604831     4.4624161995    -2.2198355112
 F      6.3541214225     5.3647974889    -2.0800698330
 H      6.8695335302     2.3448303225    -1.4343338634
 F      6.6157164418     2.7690370192    -2.2066774166
 H      7.0462086712     5.7304654744    -0.5708459121
 F      7.3898845458     5.7614672927     0.2787509220
 H      6.9009416148     2.5087837769     0.6486766060
 F      7.2210283691     1.8347055188     0.1157113428
 H      6.6932737169     4.5797184001     1.1709193389
 F      6.3447163769     3.8046934088     1.5154959538
          10
Energy: -34.29644004764134 Kcal/mole
 H      6.2288327411     4.4970055578    -2.1496991126
 F      6.1590650622     5.3729499907    -1.8875105901
 H      6.6761841788     2.3766038528    -1.5935939491
 F      6.4546522954     2.8275162752    -2.3607253667
 H      6.9255327616     5.6444098740    -0.4241326213
 F      7.2945005366     5.6727739650     0.4148830277
 H      6.7973927683     2.3297827016     0.5749497353
 F      7.0459668344     1.7976470205    -0.1292743416
 H      6.7661127719     4.3305513338     1.2529029972
 F      6.4444112647     3.5492803690     1.6092915768
          10
Energy: -34.36840999689002 Kcal/mole
 H      6.3966034687     4.5980766822    -1.9217480505
 F      5.9192616217     5.3245584006    -1.6297581982
 H      7.2183006519     2.6716769897    -1.4716616541
 F      7.3537258311     3.2596631420    -2.1621841414
 H      6.6542672595     5.8599626020    -0.2303789332
 F      7.1771453527     5.9355886630     0.5191330404
 H      6.8033654687     2.4551486458     0.6557617050
 F      6.8592657782     1.8700441143    -0.0480968337
 H      6.9596702317     4.5441656318     1.3509503706
 F      6.7889479579     3.7318609718     1.7406990646
          10
Energy: -34.42738778177775 Kcal/mole
 H      6.2299823609     4.3891967152    -2.3171935126
 F      5.8271812559     5.1846702319    -2.1030390029
 H      7.0991382883     2.4739650367    -1.6865192553
 F      7.0246073955     2.9469208357    -2.4685978691
 H      6.7758157830     5.7869319221    -0.9036096540
 F      7.3332983658     5.9346771757    -0.1906766208
 H      7.1446088272     2.5298408724     0.4726519955
 F      7.1720012907     1.8699265575    -0.1634704377
 H      7.2430734092     4.6841914210     0.9305892614
 F      7.1284240445     3.9184840743     1.4219514317
          10
Energy: -34.40057617612334 Kcal/mole
 H      6.1998936944     4.3861284418    -2.3136903252
 F      5.7783482429     5.1657404542    -2.0783319975
 H      7.1028307327     2.5178352862    -1.6809494263
 F      7.0653298512     2.9476036737    -2.4901353239
 H      6.4561616046     5.8166437654    -0.6966325934
 F      6.9298410184     6.0372984392     0.0569112525
 H      7.2473566835     2.5456330469     0.5100409035
 F      7.1142930901     1.9141410853    -0.1414197496
 H      7.2159137224     4.7162657767     1.0604954469
 F      7.3544774871     3.9178462101     1.4896985210
          10
Energy: -34.35759279086574 Kcal/mole
 H      6.0874238531     4.1247125500    -2.3117270571
 F      5.4691534482     4.7034802271    -1.9600756923
 H      7.3466599367     2.5832775471    -1.7111075014
 F      7.3518464930     3.0649003651    -2.4914289485
 H      6.2707411268     5.6126392174    -0.7878264148
 F      6.7766225603     5.9322506100    -0.0929728094
 H      7.1384038332     2.5974069978     0.5160462479
 F      7.1220762553     1.9702357624    -0.1527426962
 H      7.0148450808     4.6996670265     0.9996493000