          10
Energy: -34.526724518214365 Kcal/mole
 H      3.8481825636     4.8313771915    -2.2793700221
 F      3.2353875136     5.4539398550    -2.0004668908
 H      5.9087949786     4.0192969711    -2.2421069392
 F      5.1110570855     3.7960594929    -2.6353858252
 H      3.9703148674     6.7438077849    -1.2594274830
 F      4.5068303648     7.3503017654    -0.8290727774
 H      6.9262155559     5.0745677255    -0.6581984755
 F      7.2109272101     4.6259182611    -1.4055551053
 H      5.5620739706     6.5041081083     0.1425064622
 F      6.1458141814     5.9179887050     0.5382341607
          10
Energy: -34.52999840953041 Kcal/mole
 H      3.8349137559     4.8051001640    -2.2640341441
 F      3.2293758872     5.4287892445    -1.9721012401
 H      5.9050834060     4.0259944468    -2.2384761256
 F      5.1112539758     3.7957042073    -2.6355784315
 H      3.9712432677     6.7302482502    -1.2415907176
 F      4.5100070731     7.3417760491    -0.8212856936
 H      6.9373594871     5.0814625348    -0.6580878574
 F      7.2148532948     4.6393320328    -1.4120154441
 H      5.5748822785     6.5087446771     0.1457809978
 F      6.1599314107     5.9249703398     0.5430391455
          10
Energy: -34.53145108326808 Kcal/mole
 H      3.8375426072     4.8057095978    -2.2598384021
 F      3.2292364327     5.4287569155    -1.9723238145
 H      5.9065268472     4.0264319898    -2.2416316056
 F      5.1111774046     3.7956809967    -2.6354110405
 H      3.9707087521     6.7331173124    -1.2450542330
 F      4.5100354279     7.3416238520    -0.8211019621
 H      6.9259472169     5.0800947560    -0.6615870048
 F      7.2154586894     4.6394045903    -1.4118298224
 H      5.5618545675     6.4969761703     0.1443196602
 F      6.1347693637     5.9019955549     0.5426357453
          10
Energy: -34.5251339547076 Kcal/mole
 H      3.8449940205     4.8134600887    -2.2624314513
 F      3.2344243994     5.4374635301    -1.9818722900
 H      5.9088557044     4.0100049906    -2.2355499759
 F      5.1151416834     3.7921358127    -2.6398272002
 H      3.9717623463     6.7354992823    -1.2497773082
 F      4.5099795372     7.3414974940    -0.8208514139
 H      6.9337798412     5.0312606657    -0.6395145741
 F      7.2160070660     4.5727067004    -1.3817847772
 H      5.5628933640     6.4886633979     0.1307447591
 F      6.1347142579     5.9024365283     0.5433558624
          10
Energy: -34.52757542236415 Kcal/mole
 H      3.8426796325     4.8135224242    -2.2675476212
 F      3.2345471723     5.4374602233    -1.9816008890
 H      5.9060693639     4.0101689723    -2.2302151613
 F      5.1152894923     3.7921271138    -2.6401101998
 H      3.9793667780     6.7350897773    -1.2536164313
 F      4.5129948039     7.3423070429    -0.8206992079
 H      6.9203609685     5.0501613806    -0.6389330267
 F      7.2119387025     4.5883055372    -1.3755201600
 H      5.5765997121     6.4985642700     0.1505715725
 F      6.1545911514     5.9081404328     0.5483335471
          10
Energy: -34.52857593203734 Kcal/mole
 H      3.8411459935     4.8130839070    -2.2698380699
 F      3.2346285283     5.4374834856    -1.9814793860
 H      5.9103156785     4.0075500992    -2.2371071471
 F      5.1150642351     3.7922660390    -2.6397445959
 H      3.9922503780     6.7297604967    -1.2517294278
 F      4.5304208254     7.3351281832    -0.8218555700
 H      6.9312851406     5.0609289555    -0.6415332098
 F      7.2113592004     4.5877343422    -1.3753822263
 H      5.5947237945     6.5167487146     0.1456915623
 F      6.1802988876     5.9379232547     0.5493645702
          10
Energy: -34.52443720127192 Kcal/mole
 H      3.8373564972     4.8060006725    -2.2622479258
 F      3.2348295523     5.4378592349    -1.9818820256
 H      5.9063132656     4.0122295460    -2.2317905341
 F      5.1152765539     3.7920178051    -2.6400266299
 H      4.0102804828     6.7265489172    -1.2840741533
 F      4.5497306482     7.3374997634    -0.8638104472
 H      6.9363609954     5.0571580386    -0.6372065924
 F      7.2110899380     4.5879343806    -1.3756117433
 H      5.5851493993     6.5200030268     0.1348369960
 F      6.1635379547     5.9401751647     0.5473358802
          10
Energy: -34.5312456701796 Kcal/mole
 H      3.8380330637     4.8098868365    -2.2694261647
 F      3.2347936620     5.4376530828    -1.9815012366
 H      5.9058828907     4.0148807732    -2.2382727892
 F      5.1150832252     3.7927517478    -2.6459289988
 H      3.9949750758     6.7390835703    -1.2630068744
 F      4.5362071372     7.3493627764    -0.8440604025
 H      6.9358729379     5.0596756799    -0.6389949971
 F      7.2111158283     4.5878008256    -1.3755168726
 H      5.5877925072     6.5213730156     0.1330719517
 F      6.1633977439     5.9401024900     0.5474295118
          10
Energy: -34.52926650159009 Kcal/mole
 H      3.8411119612     4.8128789412    -2.2694654951
 F      3.2346303336     5.4374943586    -1.9814991503
 H      5.9068677631     4.0144206072    -2.2399376779
 F      5.1150309800     3.7927761586    -2.6458406803
 H      3.9967385247     6.7373760221    -1.2615039639
 F      4.5343183666     7.3543229841    -0.8476521068
 H      6.9182526227     5.0551290759    -0.6343753613
 F      7.2013301804     4.5962387404    -1.3761136954
 H      5.5952804421     6.5293459041     0.1340077689
 F      6.1630005262     5.9396795467     0.5473798688
          10
Energy: -34.52827515554702 Kcal/mole
 H      3.8426551112     4.8165728787    -2.2605490629
 F      3.2326140035     5.4414120572    -1.9807011613
 H      5.9035698178     4.0133857917    -2.2330166060
 F      5.1152059284     3.7928310531    -2.6462078271
 H      3.9925578248     6.7430774888    -1.2644978011
 F      4.5345401430     7.3540205344    -0.8474932906
 H      6.9252711683     5.0609853086    -0.6353798949
 F      7.2009578628     4.5959280808    -1.3760604072
 H      5.5891141922     6.5231605595     0.1337504051
 F      6.1633276316     5.9400076649     0.5473935214
          10
Energy: -34.53015251165314 Kcal/mole
 H      3.8383693402     4.8186273899    -2.2721338004
 F      3.2355307990     5.4560411819    -2.0053410888
 H      5.9020734947     4.0166266358    -2.2316701575
 F      5.1056649627     3.7842430812    -2.6223366823
 H      3.9946684470     6.7484267698    -1.2748997132
 F      4.5344281794     7.3537367674    -0.8469414932
 H      6.9343323598     5.0766562232    -0.6461384073
 F      7.2163864523     4.6133784544    -1.3855355927
 H      5.5837804659     6.5195039526     0.1360595523
 F      6.1636105734     5.9402016395     0.5472710265
          10
Energy: -34.52664255582823 Kcal/mole
 H      3.8378070690     4.8207377012    -2.2783602681
 F      3.2355606261     5.4559292348    -2.0050107891
 H      5.8952470283     4.0134723435    -2.2162732250
 F      5.1060270909     3.7844104091    -2.6231534540
 H      3.9922074695     6.7414554625    -1.2659594332
 F      4.5250922297     7.3504375180    -0.8346084294
 H      6.9390341458     5.0694854133    -0.6399316790
 F      7.2161370334     4.6137588493    -1.3858648453
 H      5.5894995804     6.5212899280     0.1305955165
 F      6.1633071876     5.9401068976     0.5475608809
          10
Energy: -34.52260604107346 Kcal/mole
 H      3.8519348818     4.8222343379    -2.2854424913
 F      3.2508016722     5.4650660034    -2.0279637269
 H      5.9050239101     4.0058181912    -2.2214320467
 F      5.1084877377     3.7740902297    -2.6122277453
 H      3.9869620409     6.7429347593    -1.2615073294
 F      4.5253704876     7.3503590447    -0.8348446032
 H      6.9186902114     5.0763199439    -0.6544541741
 F      7.2093662143     4.6197069337    -1.3946575382
 H      5.5914124286     6.5257370750     0.1342078302
 F      6.1632057154     5.9398709867     0.5473692560
          10
Energy: -34.526840761910734 Kcal/mole
 H      3.8506768598     4.8199232338    -2.2825786590
 F      3.2508684073     5.4651886022    -2.0281156466
 H      5.9024170762     4.0224803067    -2.2278732430
 F      5.1073096017     3.7728278240    -2.6104523091
 H      4.0033869773     6.7605338005    -1.2881448867
 F      4.5332362368     7.3659840710    -0.8481690555
 H      6.9333431589     5.0989925193    -0.6598160515
 F      7.2125314175     4.6590039776    -1.4143708867
 H      5.5972569977     6.5292640726     0.1311915479
 F      6.1628956745     5.9396838877     0.5475292628
          10
Energy: -34.52902851313644 Kcal/mole
 H      3.8525388221     4.8231423907    -2.2862956376
 F      3.2507696345     5.4650178333    -2.0279184695
 H      5.9057272034     4.0094695803    -2.2114649289
 F      5.1090890828     3.7614088553    -2.5918891417
 H      4.0061420012     6.7461143623    -1.2842603005
 F      4.5341287386     7.3551921490    -0.8470609696
 H      6.9396407148     5.1121056483    -0.6653009842
 F      7.2121973467     4.6583083564    -1.4140799237
 H      5.5863202764     6.5292726672     0.1301015724
 F      6.1713149030     5.9538793325     0.5394825651
          10
Energy: -34.530405567729105 Kcal/mole
 H      3.8494225185     4.8186599396    -2.2823251919
 F      3.2509349472     5.4652556170    -2.0281290924
 H      5.9081220715     4.0168910106    -2.2215439832
 F      5.1089620406     3.7610151655    -2.5913544711
 H      3.9976069582     6.7508930650    -1.2804778146
 F      4.5345815029     7.3549386498    -0.8472616218
 H      6.9335342947     5.0985847377    -0.6595077568
 F      7.2125212782     4.6590256094    -1.4143872410
 H      5.5916369781     6.5327176409     0.1274070842
 F      6.1710328643     5.9536965846     0.5396255014
          10
Energy: -34.52956906399268 Kcal/mole
 H      3.8503082772     4.8203249313    -2.2844581620
 F      3.2508879598     5.4651672930    -2.0280159433
 H      5.9085552924     4.0111703624    -2.2185813530
 F      5.1089390592     3.7613186327    -2.5915116318
 H      4.0041145248     6.7470627805    -1.2831254949
 F      4.5342362916     7.3551418376    -0.8471211685
 H      6.9402997743     5.1223284361    -0.6629459229
 F      7.2161779262     4.6734116538    -1.4134483998
 H      5.6032672285     6.5396075106     0.1377460346
 F      6.1873669999     5.9655471616     0.5502641225
          10
Energy: -34.53007614255097 Kcal/mole
 H      3.8517278175     4.8236920595    -2.2895267824
 F      3.2508126564     5.4649886747    -2.0277470647
 H      5.9158331373     4.0370630805    -2.2334358234
 F      5.1214815929     3.7873612370    -2.6175498862
 H      4.0023684844     6.7446101005    -1.2775331733
 F      4.5343289150     7.3552719466    -0.8474178282
 H      6.9412645356     5.1231092573    -0.6630594268
 F      7.2161267479     4.6733702331    -1.4134423787
 H      5.6003484274     6.5393078117     0.1414906994
 F      6.1875218356     5.9655630600     0.5500654767
          10
Energy: -34.52973379239748 Kcal/mole
 H      3.8554093304     4.8279578778    -2.2914547517
 F      3.2506173607     5.4647623829    -2.0276447904
 H      5.9153836647     4.0353352918    -2.2313932107
 F      5.1215054363     3.7874528922    -2.6176582420
 H      4.0010259194     6.7478791819    -1.2664120638
 F      4.5292785586     7.3541120387    -0.8255947858
 H      6.9424181728     5.1222052232    -0.6620971820
 F      7.2160655501     4.6734181900    -1.4134934235
 H      5.6030192262     6.5404922933     0.1393327455
 F      6.1873801559     5.9655002260     0.5501799512
          10
Energy: -34.5296070281324 Kcal/mole
 H      3.8636100073     4.8210954467    -2.2714559981
 F      3.2606992514     5.4534891622    -1.9931291959
 H      5.9157149496     4.0430332911    -2.2371401646
 F      5.1214878624     3.7870445311    -2.6173533794
 H      3.9927402802     6.7472129082    -1.2380151064
 F      4.5189511251     7.3612290079    -0.8056086124
 H      6.9374230706     5.1192924135    -0.6622000247
 F      7.2163305287     4.6735727078    -1.4134879680
 H      5.5995292340     6.5426639896     0.1474419483
 F      6.1875652919     5.9653850225     0.5497497767
          10
Energy: -34.53051895331083 Kcal/mole
 H      3.8670513937     4.8227110711    -2.2676169564
 F      3.2605166938     5.4534034571    -1.9933328482
 H      5.9139118685     4.0409835450    -2.2320400048
 F      5.1215835117     3.7871532654    -2.6176239311
 H      3.9933589928     6.7525901857    -1.2462848117
 F      4.5189183038     7.3609437557    -0.8051699237
 H      6.9415276199     5.1132174401    -0.6571278326
 F      7.2161127919     4.6738949711    -1.4137570360
 H      5.5957053837     6.5318952048     0.1597521196
 F      6.1851965832     5.9508930236     0.5544996226
          10
Energy: -34.52837822283115 Kcal/mole
 H      3.8496515014     4.8159331449    -2.2633851338
 F      3.2477653816     5.4520645203    -1.9914311450
 H      5.9129936299     4.0346147828    -2.2260658478
 F      5.1216322222     3.7874911135    -2.6179408463
 H      3.9845827956     6.7563149211    -1.2338962865
 F      4.5196515914     7.3600640124    -0.7979175962
 H      6.9464434468     5.1144237539    -0.6580345968
 F      7.2187997784     4.6625483493    -1.4080476949
 H      5.5968484524     6.5335844582     0.1605378027
 F      6.1851359461     5.9508034127     0.5544579439
          10
Energy: -34.53227523508028 Kcal/mole
 H      3.8567219413     4.8334399600    -2.2744113269
 F      3.2600294537     5.4717114852    -1.9961011845
 H      5.9151789194     4.0352478986    -2.2336022465
 F      5.1205007034     3.7878432117    -2.6185262051
 H      3.9938640380     6.7583882202    -1.2354841813
 F      4.5212035081     7.3659903823    -0.7954595275
 H      6.9438705493     5.1081729328    -0.6552404078
 F      7.2189362647     4.6628799409    -1.4081959202
 H      5.5959978560     6.5303468422     0.1570494839
 F      6.1851810683     5.9509751607     0.5546429912
          10
Energy: -34.53157435076628 Kcal/mole
 H      3.8577133702     4.8299407844    -2.2640319349
 F      3.2599768607     5.4718971083    -1.9966517873
 H      5.9124233525     4.0339642494    -2.2328881959
 F      5.1161396605     3.7892842501    -2.6162326621
 H      3.9917264333     6.7648341155    -1.2417214013
 F      4.5213169030     7.3656484425    -0.7951286574
 H      6.9443254035     5.1087940500    -0.6554420105
 F      7.2189121357     4.6628469921    -1.4081852256
 H      5.5981952712     6.5327486497     0.1573072191
 F      6.1850645005     5.9508477504     0.5546293189
          10
Energy: -34.52736093035929 Kcal/mole
 H      3.8624494525     4.8352003582    -2.2659660437
 F      3.2597256225     5.4716181001    -1.9965491873
 H      5.9141142030     4.0421154972    -2.2418076451
 F      5.1160499648     3.7888518452    -2.6157595060
 H      3.9913782628     6.7624673721    -1.2381022859
 F      4.5213353727     7.3657739927    -0.7953206431
 H      6.9500791889     5.1075518058    -0.6526369347
 F      7.2186069107     4.6629128903    -1.4083340284
 H      5.5924015264     6.5278616112     0.1587866230
 F      6.1853718452     5.9511069965     0.5545508400
          10
Energy: -34.53209485177658 Kcal/mole
 H      3.8626836666     4.8353454379    -2.2657845687
 F      3.2597131980     5.4716104040    -1.9965588141
 H      5.9160617688     4.0327292207    -2.2365549845
 F      5.1192365218     3.7904207200    -2.6202802981
 H      3.9967143834     6.7568598415    -1.2367751732
 F      4.5210523038     7.3660714593    -0.7953910434
 H      6.9395211184     5.1069738979    -0.6561350110
 F      7.2191669919     4.6629435469    -1.4081484636
 H      5.5970510416     6.5348083646     0.1620510657
 F      6.1851251992     5.9507384872     0.5543776688
          10
Energy: -34.53130787920736 Kcal/mole
 H      3.8605574450     4.8328844098    -2.2647074157
 F      3.2598259891     5.4717409558    -1.9966159546
 H      5.9145095885     4.0301174272    -2.2317271977
 F      5.1193188614     3.7905592696    -2.6205364011
 H      3.9968410606     6.7580576349    -1.2385733010
 F      4.5210455839     7.3660079191    -0.7952956569
 H      6.9425048811     5.1077526849    -0.6554922467
 F      7.2190087102     4.6629022341    -1.4081825607
 H      5.5925828938     6.5287806901     0.1598569644
 F      6.1853622241     5.9510582415     0.5544940608
          10
Energy: -34.527190984907065 Kcal/mole
 H      3.8617197326     4.8368977195    -2.2715406421
 F      3.2597643324     5.4715280590    -1.9962534677
 H      5.9127952423     4.0326859961    -2.2298214376
 F      5.1194098035     3.7904230129    -2.6206374973
 H      3.9878215878     6.7581258092    -1.2277653068
 F      4.5215240461     7.3660043026    -0.7958689960
 H      6.9439347324     5.1078489600    -0.6550254740
 F      7.2189328599     4.6628971269    -1.4082073219
 H      5.5820353635     6.5222096814     0.1599459698
 F      6.1763302025     5.9457814149     0.5541960148
          10
Energy: -34.530430414469095 Kcal/mole
 H      3.8589726519     4.8334918871    -2.2696524956
 F      3.2599100587     5.4717087305    -1.9963536295
 H      5.9127645089     4.0400001741    -2.2343932670
 F      5.1194114338     3.7900350127    -2.6203949723
 H      3.9877498735     6.7606217779    -1.2311679583
 F      4.5215278504     7.3658718972    -0.7956884932
 H      6.9384759353     5.1096374666    -0.6581048430
 F      7.2192224365     4.6628022508    -1.4080439685
 H      5.5889833332     6.5297061135     0.1605730496
 F      6.1759616287     5.9453837465     0.5541627496
          10
Energy: -34.531904138266526 Kcal/mole
 H      3.8567190064     4.8318619781    -2.2707688930
 F      3.2600296094     5.4717951935    -1.9962944072
 H      5.9122283778     4.0418898361    -2.2341594038
 F      5.1178667635     3.7952218131    -2.6202079916
 H      3.9949867647     6.7574102553    -1.2354766300
 F      4.5211439500     7.3660422611    -0.7954599281
 H      6.9418431213     5.1043258748    -0.6537207704
 F      7.2190438150     4.6630840184    -1.4082765335
 H      5.5887011857     6.5303051092     0.1618859891
 F      6.1759765960     5.9453519712     0.5540931012
          10
Energy: -34.53206224249982 Kcal/mole
 H      3.8612198015     4.8365648489    -2.2718655425
 F      3.2597908526     5.4715457170    -1.9962362325
 H      5.9117076569     4.0367626126    -2.2298731423
 F      5.1178943865     3.7954938005    -2.6204353679
 H      3.9971656355     6.7579125779    -1.2387579970
 F      4.5210283659     7.3660156140    -0.7952858592
 H      6.9423702685     5.1137617985    -0.6591276841
 F      7.2190158511     4.6625834645    -1.4079897092
 H      5.5875262829     6.5282320520     0.1605633738
 F      6.1760389219     5.9454619421     0.5541632629
          10
Energy: -34.52780794986194 Kcal/mole
 H      3.8575612786     4.8254478519    -2.2616813878
 F      3.2618014102     5.4671667058    -1.9893652264
 H      5.9141569981     4.0450546162    -2.2402188387
 F      5.1177644546     3.7950539288    -2.6198865526
 H      3.9909550030     6.7575993113    -1.2308722253
 F      4.5213578256     7.3660322321    -0.7957041811
 H      6.9340060047     5.1069539513    -0.6581983767
 F      7.2194595560     4.6629446051    -1.4080390068
 H      5.5942204769     6.5336666677     0.1587048319
 F      6.1756838104     5.9451736483     0.5542618542
          10
Energy: -34.52943471942007 Kcal/mole
 H      3.8589709708     4.8286570726    -2.2660984506
 F      3.2617266293     5.4669964641    -1.9891309114
 H      5.9103024765     4.0393958192    -2.2286577865
 F      5.1179689281     3.7953541149    -2.6204998397
 H      3.9941341427     6.7530959531    -1.2284065865
 F      4.5211891796     7.3662711249    -0.7958349776
 H      6.9455812406     5.1080932156    -0.6545706874
 F      7.2188455164     4.6628841697    -1.4082314473
 H      5.5925238583     6.5271088394     0.1515711912
 F      6.1757738120     5.9455215259     0.5546402774
          10
Energy: -34.531635208959614 Kcal/mole
 H      3.8653148782     4.8427139882    -2.2657241372
 F      3.2621522148     5.4758146697    -1.9895587365
 H      5.9132136095     4.0369456970    -2.2330639014
 F      5.1178144992     3.7954840883    -2.6202661055
 H      4.0022142698     6.7658375351    -1.2384332503
 F      4.5330117471     7.3720977029    -0.8007214193
 H      6.9421909589     5.1082463578    -0.6587341529
 F      7.2251348579     4.6673616470    -1.4113644883
 H      5.5965936690     6.5350954115     0.1573545380
 F      6.1755579180     5.9450978567     0.5543334842
          10
Energy: -34.52879113202357 Kcal/mole
 H      3.8627646179     4.8356785903    -2.2548327039
 F      3.2622875002     5.4761878813    -1.9901365018
 H      5.9155653328     4.0347639581    -2.2365649780
 F      5.1176897457     3.7955998245    -2.6200803815
 H      4.0030570608     6.7691999039    -1.2365077712
 F      4.5302159818     7.3726861280    -0.7906413682
 H      6.9457034877     5.1085020549    -0.6575730580
 F      7.2249485264     4.6673480829    -1.4114260817
 H      5.5903146483     6.5286635895     0.1570602027
 F      6.1758910055     5.9454390500     0.5543490980
          10
Energy: -34.53274654612525 Kcal/mole
 H      3.8618368303     4.8386908388    -2.2640381254
 F      3.2623367172     5.4760280884    -1.9896481755
 H      5.9120187436     4.0399763626    -2.2325141655
 F      5.1178778841     3.7953233184    -2.6202952677
 H      4.0110522636     6.7721927440    -1.2500338694
 F      4.5430453805     7.3770718307    -0.8118631104
 H      6.9420857158     5.1040897240    -0.6510804940
 F      7.2207361879     4.6607124294    -1.4038483793
 H      5.5987183016     6.5353603050     0.1546652815
 F      6.1754452111     5.9450838047     0.5544761431
          10
Energy: -34.532870577885774 Kcal/mole
 H      3.8602826663     4.8385715073    -2.2671335120
 F      3.2624191620     5.4760344187    -1.9894839724
 H      5.9135461474     4.0346810572    -2.2323425969
 F      5.1177968589     3.7956042222    -2.6203043690
 H      4.0046929281     6.7719993576    -1.2419181045
 F      4.5433827286     7.3770820894    -0.8122936330
 H      6.9424760443     5.1034292061    -0.6505475749
 F      7.2207154818     4.6607474683    -1.4038766494
 H      5.6013083860     6.5372850632     0.1537855118
 F      6.1753078132     5.9449817007     0.5545228128
          10
Energy: -34.53066982346343 Kcal/mole
 H      3.8574350882     4.8369744429    -2.2619054554
 F      3.2596458658     5.4746465720    -1.9845765866
 H      5.9101474311     4.0277999775    -2.2213743057
 F      5.1179771529     3.7959692475    -2.6208862115
 H      4.0072267409     6.7689791765    -1.2408210135
 F      4.5432483157     7.3772423030    -0.8123518311
 H      6.9502602074     5.0958988824    -0.6383493456
 F      7.2219804677     4.6450694380    -1.3892221127
 H      5.6158484911     6.5466590077     0.1591766672
 F      6.1944924991     5.9601823664     0.5617996438
          10
Energy: -34.529319844639076 Kcal/mole
 H      3.8632997058     4.8374474555    -2.2574786295
 F      3.2665420193     5.4703756004    -1.9673558503
 H      5.9129029190     4.0281552781    -2.2270975290
 F      5.1178309806     3.7959503997    -2.6205826078
 H      4.0093758894     6.7629774756    -1.2348964281
 F      4.5431343083     7.3775606794    -0.8126661167
 H      6.9502492675     5.1031314220    -0.6427460090
 F      7.2219810481     4.6446857685    -1.3889888798
 H      5.6123842909     6.5425419207     0.1581973682
 F      6.1946762669     5.9604007683     0.5618515933
          10
Energy: -34.527448344537504 Kcal/mole
 H      3.8629375625     4.8349968711    -2.2528269577
 F      3.2665612302     5.4705055982    -1.9676026108
 H      5.9150393003     4.0313718952    -2.2333853373
 F      5.1177176505     3.7957797656    -2.6202490540
 H      4.0131897279     6.7605931647    -1.2362197278
 F      4.5429319930     7.3776871616    -0.8125959187
 H      6.9428976951     5.0933609765    -0.6395333699
 F      7.2223710320     4.6452040681    -1.3891593029
 H      5.6075103269     6.5374681922     0.1427459411
 F      6.1806042892     5.9532414390     0.5564262660
          10
Energy: -34.52972524336556 Kcal/mole
 H      3.8581836160     4.8342956945    -2.2519877626
 F      3.2606244620     5.4678141259    -1.9648180314
 H      5.9148116084     4.0268283659    -2.2301912025
 F      5.1177297291     3.7960207893    -2.6204184955
 H      4.0050272777     6.7677249904    -1.2362554924
 F      4.5433649921     7.3773088347    -0.8125940214
 H      6.9429002260     5.1033369485    -0.6455921534
 F      7.2223708977     4.6446748658    -1.3888378984
 H      5.6095267033     6.5418767547     0.1462239163
 F      6.1804973251     5.9530075749     0.5562417674
          10
Energy: -34.53079280933886 Kcal/mole
 H      3.8638664391     4.8390253724    -2.2504923250
 F      3.2603230013     5.4675632274    -1.9648973609
 H      5.9134161644     4.0297816671    -2.2291036353
 F      5.1178037542     3.7958641235    -2.6204761884
 H      4.0075278854     6.7769235778    -1.2434589014
 F      4.5468287212     7.3836100781    -0.8168735068
 H      6.9443277554     5.0964832921    -0.6408764172
 F      7.2222951706     4.6450384365    -1.3890880574
 H      5.6054463860     6.5432049868     0.1539131464
 F      6.1807137765     5.9529371153     0.5558338715
          10
Energy: -34.53202445781142 Kcal/mole
 H      3.8605643733     4.8349497588    -2.2484424408
 F      3.2604981683     5.4677794293    -1.9650061026
 H      5.9096618592     4.0344607833    -2.2215246762
 F      5.1141412220     3.7979778117    -2.6115397016
 H      4.0063733163     6.7741357434    -1.2379862221
 F      4.5468899684     7.3837579663    -0.8171638198
 H      6.9419567744     5.0928243581    -0.6467399409
 F      7.2201650998     4.6418358698    -1.3951372359
 H      5.6069951774     6.5462124743     0.1561346740
 F      6.1806316167     5.9527775750     0.5557160246
          10
Energy: -34.53234267188594 Kcal/mole
 H      3.8553979717     4.8334962197    -2.2447151698
 F      3.2556900524     5.4688525185    -1.9662160045
 H      5.9105774549     4.0333537766    -2.2227257408
 F      5.1140926518     3.7980365359    -2.6114759879
 H      4.0074151074     6.7727553631    -1.2373203515
 F      4.5468347038     7.3838311923    -0.8171991427
 H      6.9390895111     5.0905188814    -0.6395323186
 F      7.2213211437     4.6421116930    -1.3879742327
 H      5.6015931298     6.5423249562     0.1514279073
 F      6.1736520293     5.9503583689     0.5554244110
          10
Energy: -34.530952466168486 Kcal/mole
 H      3.8545566517     4.8338199070    -2.2472515792
 F      3.2557346824     5.4688353476    -1.9660814539
 H      5.9126196569     4.0273234158    -2.2233149646
 F      5.1139843177     3.7983564326    -2.6114447310
 H      4.0086582747     6.7754448069    -1.2427800285
 F      4.5467687566     7.3836885235    -0.8169095195
 H      6.9435181892     5.0968455514    -0.6416979944
 F      7.2210862126     4.6417760777    -1.3878593486
 H      5.5958390041     6.5336341045     0.1470082936
 F      6.1739572723     5.9508193985     0.5556588613
          10
Energy: -34.52970088223242 Kcal/mole
 H      3.8575300040     4.8356780718    -2.2450838796
 F      3.2555769530     5.4687367763    -1.9661964453
 H      5.9158491452     4.0343688958    -2.2233560954
 F      5.1166063061     3.8066069572    -2.6109439996
 H      4.0015576673     6.7795697797    -1.2396036158
 F      4.5471454274     7.3834697032    -0.8170780208
 H      6.9429211122     5.0972434124    -0.6421632677
 F      7.2211178861     4.6417549721    -1.3878346670
 H      5.6014652458     6.5378680501     0.1451555752
 F      6.1736588132     5.9505947975     0.5557571438
          10
Energy: -34.530383396774596 Kcal/mole
 H      3.8600720988     4.8365090391    -2.2414447423
 F      3.2554421007     5.4686926954    -1.9663894931
 H      5.9124303753     4.0346249192    -2.2165358749
 F      5.1167876639     3.8065933757    -2.6113057965
 H      4.0073638542     6.7736554840    -1.2385608432
 F      4.5468374226     7.3837834429    -0.8171333375
 H      6.9379990749     5.0875647646    -0.6353272838
 F      7.2220058864     4.6357295053    -1.3810309980
 H      5.6052518177     6.5462708242     0.1520672648
 F      6.1734579443     5.9501490497     0.5553904946
          10
Energy: -34.53019213425179 Kcal/mole
 H      3.8519307677     4.8438465243    -2.2415768641
 F      3.2524031383     5.4792104034    -1.9627070687
 H      5.9117511237     4.0316426954    -2.2134692645
 F      5.1168236966     3.8067515758    -2.6114684731
 H      4.0086745027     6.7752008924    -1.2424519589
 F      4.5467678958     7.3837014626    -0.8169269228
 H      6.9431001673     5.0842938762    -0.6314392056
 F      7.2217352852     4.6359030184    -1.3812372516
 H      5.6047135713     6.5445357716     0.1502696281
 F      6.1734864970     5.9502410903     0.5554858551
          10
Energy: -34.53233836910047 Kcal/mole
 H      3.8529202949     4.8449549157    -2.2419703775
 F      3.2523506462     5.4791516058    -1.9626861937
 H      5.9148594077     4.0323209673    -2.2201328612
 F      5.1166588094     3.8067155950    -2.6111149847
 H      4.0072596932     6.7750963386    -1.2405061891
 F      4.5468429481     7.3837070089    -0.8170301414
 H      6.9421992234     5.0885872703    -0.6343610340
 F      7.2217830782     4.6356752637    -1.3810822554
 H      5.5992134242     6.5381398017     0.1487050318
 F      6.1737782671     5.9505803817     0.5555688533
          10
Energy: -34.53203523001696 Kcal/mole
 H      3.8551354567     4.8484823827    -2.2451651157
 F      3.2522331369     5.4789644818    -1.9625167202
 H      5.9112803132     4.0422307811    -2.2160133352
 F      5.1132936955     3.8109167967    -2.6040857492
 H      4.0071538501     6.7747713342    -1.2399036403
 F      4.5468485629     7.3837242497    -0.8170621052
 H      6.9438682144     5.0946558053    -0.6374515789
 F      7.2216945421     4.6353533420    -1.3809183091
 H      5.5981735365     6.5378983723     0.1498279944