          10
Energy: -34.51724837175311 Kcal/mole
 H      3.9098736425     4.8591516381    -2.4587260311
 F      3.3454835685     5.5698969696    -2.3276004498
 H      5.8998828095     3.9181374348    -2.1602195300
 F      5.1039758117     3.6894382979    -2.5540694451
 H      4.0519610634     6.7822114733    -1.4275227606
 F      4.5489260454     7.3403462527    -0.8961091978
 H      6.8815439252     4.9890782368    -0.5657524964
 F      7.1910675329     4.5463963719    -1.3067767218
 H      5.4824213403     6.4406496541     0.1400978808
 F      6.0234520567     5.8437786056     0.5781843052
          10
Energy: -34.51764293441755 Kcal/mole
 H      3.9378454614     4.9099274099    -2.5405227712
 F      3.3572833911     5.6018072168    -2.3819698929
 H      5.9300808097     4.0033345039    -2.2161392518
 F      5.1525932007     3.7707340431    -2.6431041725
 H      4.0670086735     6.7886324006    -1.4476712868
 F      4.5481278044     7.3400056373    -0.8950403651
 H      6.8804566692     5.0306138106    -0.5829750196
 F      7.2048173595     4.6034710046    -1.3267681131
 H      5.4806552917     6.4388106499     0.1397813081
 F      6.0235457415     5.8438761605     0.5782010987
          10
Energy: -34.510783232293505 Kcal/mole
 H      3.9565486159     4.8993494290    -2.5467296388
 F      3.3683064098     5.5689387756    -2.3310673706
 H      5.9377366942     3.9953094379    -2.2671085924
 F      5.1791690080     3.7662163556    -2.7286066152
 H      4.0598102730     6.7655534670    -1.4169201644
 F      4.5485096630     7.3412299214    -0.8966716410
 H      6.8429842310     5.0181187049    -0.5671706525
 F      7.1715018911     4.5933232321    -1.3104834758
 H      5.4714473174     6.4341345645     0.1625728343
 F      5.9969169590     5.8263439951     0.6045697567
          10
Energy: -34.50875229787073 Kcal/mole
 H      3.9535418719     4.9261637251    -2.5470304707
 F      3.3690070371     5.6025985678    -2.3429620250
 H      5.9547448176     4.0022122089    -2.2629479024
 F      5.1884964432     3.7990170495    -2.7238862453
 H      4.0663932270     6.7793974913    -1.4184577627
 F      4.5490313668     7.3413981310    -0.8779906436
 H      6.8471369417     4.9628688937    -0.5487987740
 F      7.1898039045     4.5262026175    -1.2787240550
 H      5.4874287837     6.4351692817     0.1550052578
 F      6.0194248976     5.8315664436     0.5949288292
          10
Energy: -34.517781581124154 Kcal/mole
 H      3.9489034839     4.9030495697    -2.5144874858
 F      3.3632836913     5.5809384328    -2.3185151717
 H      5.9528392159     3.9819272659    -2.2511639897
 F      5.1856508979     3.7932348144    -2.7166811681
 H      4.0914717744     6.7763962196    -1.4334520461
 F      4.6034020203     7.3428725833    -0.9255928602
 H      6.8817654449     4.9725596575    -0.5600926585
 F      7.2047267253     4.5201279210    -1.2894009165
 H      5.5593565141     6.4718599922     0.1328525838
 F      6.0844994971     5.8666609305     0.5787762804
          10
Energy: -34.524172718787554 Kcal/mole
 H      3.9311172540     4.8314327093    -2.3837274355
 F      3.3261443944     5.4823247193    -2.1573727791
 H      5.9454530379     3.9529297553    -2.2099036568
 F      5.1662349175     3.7394712140    -2.6436588550
 H      4.0564171863     6.7420718138    -1.3590989317
 F      4.5918434241     7.3283582748    -0.9003223744
 H      6.8991510619     4.9926175386    -0.5585449329
 F      7.2082591088     4.5306326226    -1.2878673257
 H      5.5591114666     6.4737856147     0.1529051962
 F      6.0882277765     5.8676420279     0.5928084614
          10
Energy: -34.51078632860629 Kcal/mole
 H      3.9212168472     4.8209832238    -2.3796188471
 F      3.3266695881     5.4828790403    -2.1575907302
 H      5.9386361796     3.9353743450    -2.1998664548
 F      5.1579601124     3.7350618591    -2.6372550533
 H      4.0536194104     6.7435458647    -1.3514436940
 F      4.5786950456     7.3330050651    -0.8848363341
 H      6.9024381558     4.9717680053    -0.5886785884
 F      7.2199863108     4.5245909122    -1.3235832195
 H      5.5230036323     6.4399808310     0.1176834202
 F      6.0521497642     5.8284874426     0.5500827806
          10
Energy: -34.51681290393202 Kcal/mole
 H      3.9175935689     4.8157608756    -2.3895156314
 F      3.3187174243     5.4741482127    -2.1686933550
 H      5.9250226280     3.9515951919    -2.2106139771
 F      5.1506449079     3.7297054891    -2.6487841569
 H      4.0462077759     6.7451611244    -1.3735470939
 F      4.5781477727     7.3201014662    -0.8967112279
 H      6.8855024878     4.9621142505    -0.5778037265
 F      7.2121904833     4.5233628069    -1.3137800335
 H      5.5247613656     6.4215567569     0.1237816080
 F      6.0440785022     5.8066946249     0.5632622905
          10
Energy: -34.51500815692569 Kcal/mole
 H      3.9246053625     4.8190893038    -2.3908982992
 F      3.3318369055     5.4901347094    -2.1928765324
 H      5.9252939104     3.9325090042    -2.1658536196
 F      5.1531875950     3.7135892313    -2.6094919530
 H      4.0407423231     6.7431751541    -1.3676528426
 F      4.5478867655     7.3339947846    -0.8832710937
 H      6.9072186601     5.0019524978    -0.5778353182
 F      7.2039943210     4.5224002805    -1.3009140677
 H      5.5470574712     6.4894126543     0.1372956995
 F      6.0990155864     5.8925626743     0.5615613479
          10
Energy: -34.5165035380291 Kcal/mole
 H      3.9310819735     4.8263391338    -2.3957644641
 F      3.3314933363     5.4897501227    -2.1926183936
 H      5.9443943786     3.9296240803    -2.1838848001
 F      5.1633638313     3.7139938488    -2.6132842500
 H      4.0302663671     6.7511926315    -1.3547533879
 F      4.5150177657     7.3450785214    -0.8515589610
 H      6.8964323967     4.9922571139    -0.5808347264
 F      7.2127454130     4.5267613584    -1.3048159259
 H      5.5388204843     6.4834460352     0.1452852126
 F      6.1000885509     5.8908454506     0.5632465798
          10
Energy: -34.50634720474409 Kcal/mole
 H      3.9122840424     4.8019418428    -2.3669646176
 F      3.3324905231     5.4910443426    -2.1941461589
 H      5.9234727871     3.9328663204    -2.1616428186
 F      5.1374218251     3.6925820528    -2.5681847671
 H      4.0279306747     6.7533456459    -1.3492861437
 F      4.5355867283     7.3384673250    -0.8585652944
 H      6.9112462693     5.0041421639    -0.5717646168
 F      7.2130585633     4.5549196147    -1.3120331090
 H      5.5675358606     6.4738249493     0.1337583807
 F      6.1135863542     5.8831694082     0.5740354414
          10
Energy: -34.51903209710281 Kcal/mole
 H      3.9164758827     4.8130205218    -2.3908229645
 F      3.3288923145     5.4816353806    -2.1703944701
 H      5.9285587065     3.9602894368    -2.1799655949
 F      5.1502118600     3.7116762689    -2.5962067260
 H      4.0243520907     6.7402303112    -1.3270318404
 F      4.5276425595     7.3386355183    -0.8479713931
 H      6.9053719300     5.0289694944    -0.5851681217
 F      7.2071795167     4.5994050605    -1.3370162298
 H      5.5320700609     6.4754668844     0.1611650637
 F      6.0813876664     5.8742440588     0.5826745917
          10
Energy: -34.507659304352984 Kcal/mole
 H      3.9429033309     4.8372878728    -2.3840278162
 F      3.3438612866     5.5033820508    -2.1881804898
 H      5.9311808951     3.9568154699    -2.1979803306
 F      5.1468036848     3.7264774425    -2.6134147840
 H      4.0393424633     6.7477662659    -1.3527113210
 F      4.5407886596     7.3330671997    -0.8558576915
 H      6.8907035184     5.0411331909    -0.6059513643
 F      7.2080938156     4.6198056758    -1.3560417084
 H      5.5252071940     6.4656813343     0.1540134421
 F      6.0654286162     5.8577879890     0.5777061323
          10
Energy: -34.52845127027658 Kcal/mole
 H      3.9210550869     4.8397644682    -2.4061368433
 F      3.3266637088     5.5093895339    -2.2081717929
 H      5.9355848966     3.9719870511    -2.2154086536
 F      5.1465700627     3.7256726252    -2.6124902517
 H      4.0035793078     6.7523332832    -1.3237016091
 F      4.4940399996     7.3341206968    -0.8119783292
 H      6.9019445202     5.0469940391    -0.6150860958
 F      7.2181212301     4.6081664717    -1.3555937962
 H      5.5020454317     6.4481079318     0.1635832119
 F      6.0644643296     5.8511392523     0.5737080454
          10
Energy: -34.5219063877436 Kcal/mole
 H      3.9147692692     4.8406150935    -2.4009869196
 F      3.3268121546     5.5224851490    -2.2270655042
 H      5.9262130607     3.9711411818    -2.2012120165
 F      5.1283216884     3.7129762693    -2.5721692053
 H      4.0071660121     6.7540230909    -1.3290152295
 F      4.4938497333     7.3340310564    -0.8116964539
 H      6.8915128539     5.0384319617    -0.6236447631
 F      7.2175108110     4.6246168336    -1.3742254528
 H      5.5015524999     6.4539704161     0.1729495519
 F      6.0644904785     5.8508282611     0.5732111827
          10
Energy: -34.51316243710676 Kcal/mole
 H      3.9134368730     4.8354448928    -2.3458042238
 F      3.3240355091     5.5124635786    -2.1583456113
 H      5.9295376724     3.9620609626    -2.1971227409
 F      5.1293862827     3.7130114783    -2.5694412979
 H      4.0108696160     6.7830352559    -1.3173090914
 F      4.5151840934     7.3712564932    -0.8268484060
 H      6.9103102717     5.0480286430    -0.6311202539
 F      7.2162677096     4.6149520705    -1.3792671168
 H      5.5649126142     6.5180625163     0.1362975121
 F      6.1201220590     5.9123583383     0.5434263876
          10
Energy: -34.515897460709795 Kcal/mole
 H      3.9070614051     4.8734138698    -2.4010960351
 F      3.3297976649     5.5648472167    -2.2291207432
 H      5.9186992688     3.9777838254    -2.1993282249
 F      5.1225171382     3.7213733793    -2.5751429373
 H      4.0123910400     6.8084524738    -1.3427130348
 F      4.5162233779     7.3845455043    -0.8375805814
 H      6.9180275451     5.0581731720    -0.6339565680
 F      7.2158583260     4.6144139267    -1.3791166569
 H      5.5434814207     6.4972636965     0.1500810173
 F      6.1057957178     5.8941416075     0.5512485348
          10
Energy: -34.52341057803454 Kcal/mole
 H      3.9148292088     4.8758542748    -2.4090125196
 F      3.3410542774     5.5724917875    -2.2466317816
 H      5.9117871089     3.9704793601    -2.1688419657
 F      5.1147630561     3.7178528211    -2.5454339080
 H      4.0187856357     6.8083115872    -1.3498204844
 F      4.5169502356     7.3828037161    -0.8372974847
 H      6.9229046084     5.0773166687    -0.6407681327
 F      7.2158642563     4.6430850035    -1.3934343971
 H      5.5235592357     6.4864322795     0.1327935798
 F      6.0849722153     5.8884227367     0.5427802296
          10
Energy: -34.51998045043777 Kcal/mole
 H      3.9131722931     4.8659817460    -2.3979236387
 F      3.3420855950     5.5645088887    -2.2341896649
 H      5.9145790415     3.9834955715    -2.1979645887
 F      5.1182723800     3.7270192256    -2.5734703606
 H      4.0692786233     6.8214551035    -1.4021055275
 F      4.5714702507     7.4036483859    -0.9023620421
 H      6.9058151193     5.0783188655    -0.6482421341
 F      7.2167708142     4.6430318393    -1.3930379186
 H      5.5471434899     6.5127364361     0.1303556253
 F      6.0833598155     5.8945103195     0.5440675069
          10
Energy: -34.52349224169305 Kcal/mole
 H      3.9123972457     4.8695730812    -2.4149705075
 F      3.3421267094     5.5643183766    -2.2332853679
 H      5.9206924667     3.9821931577    -2.2103077052
 F      5.1179480769     3.7270883156    -2.5728155868
 H      4.0595340978     6.8130703562    -1.3847791895
 F      4.5674574610     7.4027182260    -0.8997861516
 H      6.9118131258     5.0854095998    -0.6499450605
 F      7.2164526338     4.6426556922    -1.3929475823
 H      5.5436912843     6.5208474077     0.1035498276
 F      6.0842921507     5.9131165250     0.5269915324
          10
Energy: -34.51544377359363 Kcal/mole
 H      3.9209292722     4.8792778567    -2.4421424384
 F      3.3546887983     5.5792241229    -2.2679702527
 H      5.9285925862     4.0170772037    -2.2338955039
 F      5.1337998932     3.7485569192    -2.6041527549
 H      4.0712133328     6.8135513725    -1.3972775077
 F      4.5668379045     7.4026927092    -0.8991231447
 H      6.9092169325     5.1100583179    -0.6677284657
 F      7.2148169038     4.6787594220    -1.4170474365
 H      5.5570704582     6.5275672012     0.1199911422
 F      6.1044216658     5.9252480186     0.5424923349
          10
Energy: -34.52054127631823 Kcal/mole
 H      3.9060724651     4.8762350668    -2.4289856870
 F      3.3313537739     5.5621007384    -2.2285469019
 H      5.9172176145     4.0035605833    -2.2426113260
 F      5.1265391826     3.7482345514    -2.6305871432
 H      4.0364173497     6.8151312693    -1.3726892374
 F      4.5524435272     7.3897761693    -0.8783318536
 H      6.9138928327     5.1001639005    -0.6690479622
 F      7.2104464729     4.6814836035    -1.4290820058
 H      5.5627481152     6.5155478759     0.0974528440
 F      6.1156756563     5.9229923894     0.5264494987
          10
Energy: -34.52604133906863 Kcal/mole
 H      3.9059990000     4.8769067454    -2.4314771919
 F      3.3313576711     5.5620651074    -2.2284147333
 H      5.9065503896     4.0034951908    -2.2477623550
 F      5.1123226325     3.7451557939    -2.6263809307
 H      4.0519497643     6.8183853265    -1.3896008449
 F      4.5641674511     7.3975125043    -0.8965148957
 H      6.8932861545     5.1080411355    -0.6829668896
 F      7.1955907584     4.6806309638    -1.4358423585
 H      5.5619845413     6.5266853040     0.1143229336
 F      6.1157161621     5.9224015746     0.5255545794
          10
Energy: -34.51299513629098 Kcal/mole
 H      3.9136768880     4.8789176559    -2.3951413176
 F      3.3264190799     5.5552508873    -2.1986963457
 H      5.9012014135     4.0174882961    -2.2315906921
 F      5.1081737963     3.7460999905    -2.6035377125
 H      4.0517849199     6.8329193348    -1.3824335415
 F      4.5742032037     7.4042468678    -0.8909531382
 H      6.9105309735     5.1163768744    -0.6729700876
 F      7.1933158696     4.6989345200    -1.4389097610
 H      5.5723460362     6.5311980559     0.1180711481
 F      6.1110109514     5.9169026901     0.5344487565
          10
Energy: -34.52425679088785 Kcal/mole
 H      3.8963238192     4.8720620739    -2.4064404854
 F      3.3128023782     5.5472401373    -2.1954279015
 H      5.9112735163     3.9946469189    -2.2074513059
 F      5.1195419380     3.7515739845    -2.6011080810
 H      4.0501289531     6.8000622849    -1.3663698292
 F      4.5645788258     7.3884255211    -0.8867251372
 H      6.9165748353     5.0529527675    -0.6384101143
 F      7.2133606758     4.5932683964    -1.3742752133
 H      5.5582756274     6.5169758353     0.1158040657
 F      6.1117573541     5.9176571461     0.5345690200
          10
Energy: -34.525753033452276 Kcal/mole
 H      3.9000757549     4.8655316061    -2.3653133111
 F      3.3099770526     5.5304225132    -2.1403853153
 H      5.9180239120     3.9844091970    -2.2134303943
 F      5.1219865246     3.7537365514    -2.6058633293
 H      4.0433336786     6.7936656836    -1.3508758425
 F      4.5649392994     7.3887648461    -0.8875470574
 H      6.9091368295     5.0627122137    -0.6372395474
 F      7.2144279680     4.6041670504    -1.3703307109
 H      5.5683373751     6.5292925332     0.1204780845
 F      6.1112236016     5.9170037737     0.5343210741
          10
Energy: -34.51982317543158 Kcal/mole
 H      3.8781751940     4.8428879247    -2.3510913554
 F      3.2999463719     5.5172043913    -2.1234123442
 H      5.9073640493     3.9850696839    -2.2115429441
 F      5.1099058210     3.7404078116    -2.5924496810
 H      4.0152093378     6.7839266690    -1.3250870069
 F      4.5356085347     7.3801090761    -0.8617942125
 H      6.9255674786     5.0722254134    -0.6434709042
 F      7.2115649745     4.6215508620    -1.3891161824
 H      5.5514354837     6.5175932245     0.1259161393
 F      6.1121202079     5.9176243950     0.5340325978
          10
Energy: -34.52134454759147 Kcal/mole
 H      3.8751271488     4.8515840084    -2.3222304996
 F      3.2881345043     5.5264355901    -2.1199831808
 H      5.8923534482     3.9885728227    -2.1939391466
 F      5.0910347097     3.7455576570    -2.5677317476
 H      4.0070477992     6.7952095069    -1.3049443258
 F      4.5172277017     7.3865104674    -0.8243523562
 H      6.9319270373     5.0664055181    -0.6385219782
 F      7.2070830491     4.6148889537    -1.3877288663
 H      5.5554300295     6.5181146651     0.1371805965
 F      6.1349191374     5.9319588092     0.5390545648
          10
Energy: -34.52424498751404 Kcal/mole
 H      3.8769991466     4.8513700952    -2.3159723254
 F      3.2880351991     5.5264469377    -2.1203151625
 H      5.8980512395     3.9852088249    -2.1869683775
 F      5.0945116670     3.7359347551    -2.5517636538
 H      4.0077441287     6.7931979350    -1.3203854346
 F      4.5359710113     7.3799569979    -0.8539316184
 H      6.9225811586     5.0725357736    -0.6457735807
 F      7.2075788264     4.6145637578    -1.3873441856
 H      5.5688534629     6.5273046315     0.1316158301
 F      6.1342070553     5.9314713027     0.5393497628
          10
Energy: -34.52354917139007 Kcal/mole
 H      3.8693918185     4.8478339634    -2.3262001542
 F      3.2884387503     5.5266345213    -2.1197725998
 H      5.8968631090     3.9923208485    -2.1892939450
 F      5.0945746946     3.7355574787    -2.5516402878
 H      4.0161517950     6.7853902044    -1.3199362492
 F      4.5355250040     7.3803711800    -0.8539554466
 H      6.9225205190     5.0800832706    -0.6448931234
 F      7.2018682141     4.6411648628    -1.4000119860
 H      5.5472449223     6.5126394226     0.1412997846
 F      6.1143173879     5.9187393402     0.5494670431
          10
Energy: -34.52238851274876 Kcal/mole
 H      3.8720349516     4.8498199679    -2.3350648120
 F      3.2922255660     5.5284515835    -2.1249000990
 H      5.8989170285     3.9926562791    -2.1902060070
 F      5.1067720532     3.7474778557    -2.5817195813
 H      4.0033743431     6.8058942634    -1.3118943769
 F      4.5245348687     7.3855568329    -0.8289119632
 H      6.9035593741     5.0770819812    -0.6359932329
 F      7.2019887626     4.6304910477    -1.3792196036
 H      5.5455613827     6.5127880328     0.1438671712
 F      6.1144066958     5.9187314568     0.5493308492
          10
Energy: -34.52741272177772 Kcal/mole
 H      3.8773457495     4.8582838278    -2.3471286600
 F      3.2919438404     5.5280025953    -2.1242601397
 H      5.9032051137     3.9911054988    -2.2230778710
 F      5.1040119250     3.7552801508    -2.6059168087
 H      4.0103305672     6.7928704291    -1.3034542893
 F      4.5241658571     7.3862477172    -0.8293596903
 H      6.9085872490     5.0789236006    -0.6351018480
 F      7.2017220454     4.6303933540    -1.3792668895
 H      5.5531063406     6.5154742022     0.1373559041
 F      6.1140064532     5.9185889617     0.5496762569
          10
Energy: -34.52671218523571 Kcal/mole
 H      3.8855037304     4.8579222278    -2.3379970855
 F      3.2984975200     5.5241445731    -2.1089545223
 H      5.8986712855     3.9854605877    -2.1994796933
 F      5.1026287322     3.7469003907    -2.5871577629
 H      4.0133187632     6.7914529811    -1.3049044061
 F      4.5240073402     7.3863229096    -0.8292827650
 H      6.9098352502     5.0607307803    -0.6322571266
 F      7.2000116017     4.6083934812    -1.3752764083
 H      5.5697546489     6.5197200050     0.1423641148
 F      6.1287414805     5.9193096875     0.5521569560
          10
Energy: -34.522349031785694 Kcal/mole
 H      3.8796002873     4.8544198798    -2.3427785947
 F      3.2988106840     5.5243303645    -2.1087008743
 H      5.8963086407     3.9818468416    -2.1924961458
 F      5.1027540650     3.7470920916    -2.5875282240
 H      4.0057015597     6.7860521404    -1.2875482834
 F      4.5156625710     7.3826936156    -0.8133671820
 H      6.9079306428     5.0720636671    -0.6400366813
 F      7.2001126367     4.6077922978    -1.3748637209
 H      5.5552080721     6.5178441623     0.1440125432
 F      6.1152802254     5.9154931620     0.5494523728
          10
Energy: -34.51915438368178 Kcal/mole
 H      3.8731124844     4.8459552315    -2.3369472777
 F      3.2830304831     5.5025810800    -2.0888853362
 H      5.8950540046     3.9862281017    -2.1926071281
 F      5.1028206206     3.7468596759    -2.5875223366
 H      4.0027487302     6.7863196334    -1.2846903891
 F      4.5158192118     7.3826794257    -0.8135187867
 H      6.9089885590     5.0671261580    -0.6361675350
 F      7.2021945301     4.6256890822    -1.3845341340
 H      5.5382517645     6.5129958264     0.1577364433
 F      6.1042089339     5.9134905050     0.5592023221
          10
Energy: -34.525145722595 Kcal/mole
 H      3.8659428522     4.8310384414    -2.3282419706
 F      3.2809573839     5.5017960492    -2.1074134548
 H      5.9040155801     3.9930379714    -2.2051977653
 F      5.1117285481     3.7456633297    -2.5950388169
 H      3.9982161123     6.7639977901    -1.2977473550
 F      4.4973064638     7.3604795865    -0.8119415424
 H      6.9143653107     5.0800078997    -0.6396839739
 F      7.1977401126     4.6333605430    -1.3887459609
 H      5.5458220764     6.5118047361     0.1559653866
 F      6.1281234934     5.9274554125     0.5564025572
          10
Energy: -34.52305712172699 Kcal/mole
 H      3.8740922423     4.8465863701    -2.3518198365
 F      3.2805250776     5.5009712675    -2.1061627035
 H      5.9144507268     3.9995055657    -2.2351869629
 F      5.1253163080     3.7659233878    -2.6396560411
 H      3.9792362903     6.7685695103    -1.2832199561
 F      4.4983132994     7.3602370674    -0.8127121873
 H      6.9034711801     5.0821539234    -0.6460217307
 F      7.2033960603     4.6338522198    -1.3876143741
 H      5.5492422631     6.5156362720     0.1566183957
 F      6.1279420604     5.9272521584     0.5563679166
          10
Energy: -34.527224572770564 Kcal/mole
 H      3.8750891414     4.8465859859    -2.3493953343
 F      3.2804721944     5.5009712879    -2.1062913177
 H      5.9128801200     4.0069028945    -2.2268592478
 F      5.1198210470     3.7666565839    -2.6195779984
 H      3.9903296003     6.7645327176    -1.2901720627
 F      4.4977248250     7.3604512099    -0.8123433941
 H      6.9121126254     5.0804109104    -0.6415425882
 F      7.2029376516     4.6339446826    -1.3878519823
 H      5.5547356676     6.5114964775     0.1428833470
 F      6.1276506480     5.9274717649     0.5570965292
          10
Energy: -34.52418679856817 Kcal/mole
 H      3.8800079246     4.8483545890    -2.3419456390
 F      3.2802112643     5.5008774676    -2.1066865068
 H      5.9164278176     4.0011223748    -2.2305673606
 F      5.1196328499     3.7669632271    -2.6193812916
 H      3.9935512935     6.7581249465    -1.2855212110
 F      4.4975539216     7.3607911273    -0.8125901111
 H      6.9103106412     5.0857980647    -0.6455013840
 F      7.2030332427     4.6336589065    -1.3876419773
 H      5.5583599672     6.5260608706     0.1495059387
 F      6.1404631161     5.9381619144     0.5450052957
          10
Energy: -34.52127833036823 Kcal/mole
 H      3.8672313300     4.8365287215    -2.3217020513
 F      3.2670962914     5.4880139788    -2.0844387062
 H      5.9116567465     4.0073337885    -2.2246610923
 F      5.1198859442     3.7666337260    -2.6196946054
 H      4.0003172774     6.7482107339    -1.2892835767
 F      4.4995111186     7.3564591402    -0.8184031405
 H      6.9239902923     5.0929839199    -0.6446535120
 F      7.2023075688     4.6332777135    -1.3876869549
 H      5.5668248455     6.5242497999     0.1499228214
 F      6.1553214150     5.9454340958     0.5493388557
          10
Energy: -34.52589090921694 Kcal/mole
 H      3.8582274530     4.8253150917    -2.3141833969
 F      3.2619938274     5.4709029113    -2.0522467044
 H      5.9008278290     4.0114948500    -2.2357162841
 F      5.1096328509     3.7686165149    -2.6305702078
 H      3.9840232377     6.7435913185    -1.2650662692
 F      4.5003754797     7.3567041895    -0.8196878127
 H      6.9219281885     5.0879297564    -0.6541825867
 F      7.2046403122     4.6309089165    -1.3972134117
 H      5.5710855098     6.5325377260     0.1558159398
 F      6.1550953966     5.9449944405     0.5490262394
          10
Energy: -34.52697574044626 Kcal/mole
 H      3.8483876120     4.8252512091    -2.2988888309
 F      3.2429823355     5.4576480295    -2.0260377491
 H      5.9014350049     4.0469697235    -2.2643296789
 F      5.1101966810     3.7973465257    -2.6548667115
 H      3.9770463893     6.7489178336    -1.2642182203
 F      4.5007455854     7.3564216302    -0.8197327998
 H      6.9290943169     5.1014937502    -0.6735690447
 F      7.2073457268     4.6751629423    -1.4362663602
 H      5.5701704575     6.5281530139     0.1460406528
 F      6.1613440376     5.9479141036     0.5393924102
          10
Energy: -34.52807371933366 Kcal/mole
 H      3.8485862046     4.8359408082    -2.3082999610
 F      3.2379625579     5.4593275708    -2.0264902625
 H      5.9015358585     4.0405529690    -2.2605077730
 F      5.1101913310     3.7976869197    -2.6550694548
 H      3.9729025691     6.7491150701    -1.2595593882
 F      4.5009654055     7.3564111673    -0.8199799400
 H      6.9315235038     5.1120909067    -0.6787062075
 F      7.2072168641     4.6746007876    -1.4359938456
 H      5.5781881777     6.5275766334     0.1334395269
 F      6.1609187161     5.9479446792     0.5400608708
          10
Energy: -34.52256493052306 Kcal/mole
 H      3.8514678383     4.8483096973    -2.3174761571
 F      3.2420515470     5.4716042083    -2.0328628468
 H      5.9067525015     4.0565192622    -2.2767735815
 F      5.1196435964     3.8214909753    -2.6843398656
 H      3.9766715879     6.7500763117    -1.2653566911
 F      4.5007654678     7.3563601756    -0.8196724065
 H      6.9173415641     5.1086906523    -0.6679596216
 F      7.1962380798     4.6835956643    -1.4311109727
 H      5.5821191546     6.5239486012     0.1395177347
 F      6.1722720431     5.9494490884     0.5427036445
          10
Energy: -34.52989638800963 Kcal/mole
 H      3.8506933023     4.8303989637    -2.2997165491
 F      3.2376360800     5.4478734491    -2.0102772598
 H      5.9153539640     4.0454544940    -2.2668743383
 F      5.1244048539     3.8101803627    -2.6667925654
 H      3.9559449656     6.7429337982    -1.2398976373
 F      4.4731823798     7.3529479824    -0.7913029956
 H      6.9272948104     5.1136299232    -0.6735207168
 F      7.2066128966     4.6742688861    -1.4283930808
 H      5.5558409535     6.5200635291     0.1454281144
 F      6.1543273823     5.9475423498     0.5390300629
          10
Energy: -34.52772060109075 Kcal/mole
 H      3.8541952109     4.8320999898    -2.2958736490
 F      3.2374503119     5.4477832136    -2.0104811168
 H      5.9085528517     4.0549796019    -2.2625218138
 F      5.1154296583     3.8135175620    -2.6543644908
 H      3.9584729849     6.7418046814    -1.2412658813
 F      4.4730482742     7.3530078794    -0.7912304135
 H      6.9244314576     5.1113031444    -0.6732355037
 F      7.2067647908     4.6743923164    -1.4284082107
 H      5.5620423530     6.5269679564     0.1461575476
 F      6.1539984124     5.9471760859     0.5389913681
          10
Energy: -34.52615165955547 Kcal/mole
 H      3.8417171705     4.8389129555    -2.2951787254
 F      3.2321811087     5.4685809074    -2.0252286192
 H      5.9100240179     4.0560536149    -2.2661838894
 F      5.1153516164     3.8134605881    -2.6541702262
 H      3.9457897721     6.7544860799    -1.2436039020
 F      4.4737210893     7.3523351605    -0.7911063869
 H      6.9271780423     5.1099887397    -0.6714568606
 F      7.2066190908     4.6744620425    -1.4285025636
 H      5.5519954596     6.5165646262     0.1462229392
 F      6.1545313769     5.9477279585     0.5389878993
          10
Energy: -34.528992647095464 Kcal/mole
 H      3.8407769635     4.8428079571    -2.3061220080
 F      3.2322309845     5.4683742865    -2.0246481034
 H      5.9082506503     4.0535073177    -2.2610089892
 F      5.1154456894     3.8135956633    -2.6544447427
 H      3.9466432535     6.7471396601    -1.2347383179
 F      4.4736758141     7.3527248711    -0.7915766856
 H      6.9258929529     5.1170413858    -0.6760389296
 F      7.2066872619     4.6740879159    -1.4282594954
 H      5.5585738562     6.5279417942     0.1528998118
 F      6.1541824082     5.9471244260     0.5386337066
          10
Energy: -34.52565492761485 Kcal/mole
 H      3.8395909667     4.8415437735    -2.3058707861
 F      3.2322938989     5.4684413485    -2.0246614301
 H      5.9119516714     4.0502146020    -2.2665326673
 F      5.1152493588     3.8137703343    -2.6541517243
 H      3.9453603673     6.7503524617    -1.2375791588
 F      4.4737438682     7.3525544394    -0.7914259856
 H      6.9315980705     5.1136473105    -0.6719531738
 F      7.2063846186     4.6742679638    -1.4284762353
 H      5.5626503136     6.5253432796     0.1428621136
 F      6.1539661615     5.9472622712     0.5391661833
          10
Energy: -34.52522116653688 Kcal/mole
 H      3.8428567511     4.8381215199    -2.2910321419
 F      3.2357402714     5.4609807899    -2.0006101904
 H      5.8985644760     4.0506408210    -2.2690890129
 F      5.1065785896     3.8136415724    -2.6659248881
 H      3.9547439931     6.7409583402    -1.2358006257
 F      4.4732460886     7.3530527759    -0.7915203326
 H      6.9185155204     5.0951089669    -0.6661345380
 F      7.2050898144     4.6607800403    -1.4211991429
 H      5.5557750140     6.5113094090     0.1628176339