          10
Energy: -34.52972152898704 Kcal/mole
 H      3.8587328148     4.8531536094    -2.2345421037
 F      3.2472631259     5.4662532056    -1.9327098578
 H      5.9152801518     4.0532320783    -2.2237330185
 F      5.1212759177     3.8347470542    -2.6271070017
 H      3.9997851970     6.7753802479    -1.2233994520
 F      4.5419979551     7.3892648550    -0.8110403680
 H      6.9456123360     5.0872007123    -0.6266459819
 F      7.2268882547     4.6316928046    -1.3711494430
 H      5.6018337365     6.5511094972     0.1538839919
 F      6.1659998289     5.9535746336     0.5607718229
          10
Energy: -34.52999596737294 Kcal/mole
 H      3.8564919302     4.8478470852    -2.2281742771
 F      3.2473819997     5.4665347045    -1.9330476563
 H      5.9174216370     4.0569287750    -2.2300261441
 F      5.1211623168     3.8345509529    -2.6267731660
 H      4.0003947103     6.7757215937    -1.2247062661
 F      4.5419656218     7.3892467474    -0.8109710445
 H      6.9384147427     5.0875037440    -0.6295935068
 F      7.2272700704     4.6316767295    -1.3709930836
 H      5.5973785344     6.5443662354     0.1502600144
 F      6.1662361671     5.9539323481     0.5609640666
          10
Energy: -34.53219818465897 Kcal/mole
 H      3.8526887172     4.8491760016    -2.2385871739
 F      3.2475837513     5.4664642085    -1.9324952762
 H      5.9199366480     4.0548813551    -2.2334655484
 F      5.1272721081     3.8381774428    -2.6404192824
 H      3.9997019777     6.7777080177    -1.2267342817
 F      4.5420023697     7.3891413722    -0.8108634630
 H      6.9412276931     5.0862163706    -0.6277153574
 F      7.2271208499     4.6317450216    -1.3710927151
 H      5.5916598914     6.5405643962     0.1513044698
 F      6.1632875429     5.9495439757     0.5572917733
          10
Energy: -34.53156104820022 Kcal/mole
 H      3.8524283333     4.8457947121    -2.2321928382
 F      3.2475975641     5.4666435781    -1.9328344809
 H      5.9206924248     4.0525472208    -2.2337025787
 F      5.1272320159     3.8383012632    -2.6404067085
 H      4.0020187235     6.7766799461    -1.2282328479
 F      4.5418794717     7.3891959091    -0.8107839675
 H      6.9437004025     5.0917942574    -0.6302052425
 F      7.2269896784     4.6314491276    -1.3709606324
 H      5.5965095336     6.5440383488     0.1495834417
 F      6.1630302805     5.9493596906     0.5573830699
          10
Energy: -34.53134289068797 Kcal/mole
 H      3.8545603631     4.8500015727    -2.2365376523
 F      3.2474844648     5.4664204139    -1.9326039986
 H      5.9210896368     4.0503448902    -2.2333240330
 F      5.1272109447     3.8384180917    -2.6404267895
 H      3.9998638585     6.7783387981    -1.2278706082
 F      4.5419937823     7.3891079108    -0.8108031835
 H      6.9383795623     5.0916628096    -0.6321813298
 F      7.2272719367     4.6314561006    -1.3708558056
 H      5.5913607937     6.5401197755     0.1510787746
 F      6.1633034093     5.9495675618     0.5573037459
          10
Energy: -34.53212633319205 Kcal/mole
 H      3.8515918224     4.8458581092    -2.2340073973
 F      3.2476419391     5.4666402151    -1.9327382228
 H      5.9208358560     4.0565353870    -2.2361114457
 F      5.1272244072     3.8380897002    -2.6402789237
 H      3.9998959837     6.7767715480    -1.2256076598
 F      4.5419920781     7.3891910498    -0.8109232277
 H      6.9382157214     5.0890046944    -0.6305962029
 F      7.2272806280     4.6315971075    -1.3709398929
 H      5.5953211458     6.5446448149     0.1521294198
 F      6.1630933218     5.9493275190     0.5572480116
          10
Energy: -34.530952669644705 Kcal/mole
 H      3.8509581046     4.8445235155    -2.2325201157
 F      3.2476755563     5.4667110122    -1.9328171196
 H      5.9227142091     4.0527593352    -2.2377856559
 F      5.1271247649     3.8382900110    -2.6401901107
 H      3.9969543523     6.7777792959    -1.2232310400
 F      4.5421481248     7.3891375911    -0.8110493019
 H      6.9442020928     5.0919891986    -0.6301347360
 F      7.2269630649     4.6314387865    -1.3709643726
 H      5.5930282005     6.5431233242     0.1531182730
 F      6.1632149572     5.9494082305     0.5571955552
          10
Energy: -34.52930842962013 Kcal/mole
 H      3.8515699552     4.8459580777    -2.2445843193
 F      3.2473526513     5.4634680733    -1.9371890444
 H      5.9199550891     4.0533523193    -2.2326910540
 F      5.1272711299     3.8382585546    -2.6404603676
 H      3.9947295102     6.7774107724    -1.2197193836
 F      4.5422661476     7.3891571404    -0.8112355871
 H      6.9362508075     5.0890175986    -0.6313745470
 F      7.2273848622     4.6315964230    -1.3708986035
 H      5.5970633312     6.5451424557     0.1504270646
 F      6.1630009029     5.9493011203     0.5573383176
          10
Energy: -34.53207501651761 Kcal/mole
 H      3.8543711410     4.8452139371    -2.2374826596
 F      3.2472040549     5.4635075482    -1.9375657710
 H      5.9230822518     4.0520808139    -2.2381526337
 F      5.1271052411     3.8383260050    -2.6401706434
 H      3.9999615005     6.7656233882    -1.2315656232
 F      4.5415346146     7.3797741876    -0.8187625738
 H      6.9424365206     5.0913495021    -0.6304135047
 F      7.2270567244     4.6314727209    -1.3709495846
 H      5.5911385742     6.5397998123     0.1509267256
 F      6.1633151975     5.9495845352     0.5573118118
          10
Energy: -34.53136726691139 Kcal/mole
 H      3.8509636868     4.8443439257    -2.2425210343
 F      3.2473848124     5.4635537003    -1.9372984969
 H      5.9201794522     4.0583795656    -2.2358243971
 F      5.1272592279     3.8379918708    -2.6402941510
 H      4.0008642738     6.7676709174    -1.2357673305
 F      4.5414867246     7.3796655709    -0.8185396829
 H      6.9406197048     5.0878104748    -0.6289268549
 F      7.2271531023     4.6316604581    -1.3710284479
 H      5.5917099524     6.5419528895     0.1532627755
 F      6.1632848872     5.9494703194     0.5571878897
          10
Energy: -34.530148301128065 Kcal/mole
 H      3.8523250432     4.8432597303    -2.2375821182
 F      3.2473125956     5.4636112144    -1.9375604950
 H      5.9222953447     4.0568091913    -2.2391400636
 F      5.1271469847     3.8380751755    -2.6401182625
 H      3.9962361696     6.7707651222    -1.2174754668
 F      4.5359514854     7.3865335623    -0.8046491037
 H      6.9368182041     5.0889082227    -0.6310838208
 F      7.2273547631     4.6316022251    -1.3709140259
 H      5.5879993274     6.5392905636     0.1546380203
 F      6.1634817273     5.9496115496     0.5571149362
          10
Energy: -34.53188776981173 Kcal/mole
 H      3.8544261541     4.8459165319    -2.2388157306
 F      3.2472011366     5.4634702772    -1.9374950547
 H      5.9200525261     4.0569924659    -2.2348235977
 F      5.1272659611     3.8380654532    -2.6403472411
 H      3.9954163330     6.7739191683    -1.2210780909
 F      4.5359949759     7.3863662474    -0.8044579928
 H      6.9441608024     5.0897713261    -0.6287765227
 F      7.2269652552     4.6315564395    -1.3710364227
 H      5.5927823300     6.5441257740     0.1549438580
 F      6.1632280001     5.9493550529     0.5570987122
          10
Energy: -34.53173139586576 Kcal/mole
 H      3.8515765467     4.8432521759    -2.2390710146
 F      3.2473523016     5.4636116151    -1.9374815125
 H      5.9183148956     4.0550921162    -2.2308207070
 F      5.1283017913     3.8389357415    -2.6431854930
 H      3.9949949938     6.7754218672    -1.2227338695
 F      4.5360173269     7.3862865327    -0.8043701576
 H      6.9383620700     5.0928185117    -0.6308421479
 F      7.2208398175     4.6256975471    -1.3676551001
 H      5.5993669519     6.5486817566     0.1505691402
 F      6.1744274352     5.9618559849     0.5577913821
          10
Energy: -34.53278147737862 Kcal/mole
 H      3.8529940586     4.8449082492    -2.2396287260
 F      3.2472771059     5.4635237643    -1.9374519272
 H      5.9208773846     4.0535137729    -2.2349357916
 F      5.1281658572     3.8390194690    -2.6429671972
 H      3.9963169929     6.7733949824    -1.2214745837
 F      4.5359471979     7.3863940543    -0.8044369598
 H      6.9407491133     5.0892632930    -0.6276932782
 F      7.2207131904     4.6258861432    -1.3678221404
 H      5.5966022191     6.5477999429     0.1532226271
 F      6.1745740979     5.9619027631     0.5576506207
          10
Energy: -34.53241119162243 Kcal/mole
 H      3.8551559078     4.8470686769    -2.2397018099
 F      3.2471624248     5.4634091586    -1.9374480502
 H      5.9193564262     4.0537335454    -2.2321098010
 F      5.1282465406     3.8390078105    -2.6431171095
 H      3.9964358854     6.7738767844    -1.2223353749
 F      4.5359408910     7.3863684958    -0.8043912968
 H      6.9411402781     5.0899297769    -0.6279630611
 F      7.2206924400     4.6258507878    -1.3678078290
 H      5.5951143807     6.5459465812     0.1526716845
 F      6.1746530243     5.9620010796     0.5576798469
          10
Energy: -34.532067806431 Kcal/mole
 H      3.8524049543     4.8446779740    -2.2403366036
 F      3.2473083565     5.4635359798    -1.9374143759
 H      5.9198739868     4.0560626592    -2.2343364666
 F      5.1282190852     3.8388842564    -2.6429989900
 H      3.9964881765     6.7721283480    -1.2198287940
 F      4.5359381171     7.3864612463    -0.8045242651
 H      6.9341685782     5.0884957025    -0.6297360810
 F      7.2210622726     4.6259268621    -1.3677137744
 H      5.5994498412     6.5498799760     0.1521840135
 F      6.1744230381     5.9617924221     0.5577057168
          10
Energy: -34.53295011978267 Kcal/mole
 H      3.8523542103     4.8446042279    -2.2402872878
 F      3.2473110484     5.4635398919    -1.9374169920
 H      5.9206359019     4.0529267672    -2.2341593662
 F      5.1281786673     3.8390506082    -2.6430083848
 H      3.9967769560     6.7728053792    -1.2212023067
 F      4.5359227980     7.3864253313    -0.8044514034
 H      6.9389617760     5.0887232139    -0.6280337954
 F      7.2208080045     4.6259147932    -1.3678040767
 H      5.5994658516     6.5499067980     0.1522002118
 F      6.1744221888     5.9617909993     0.5577048575
          10
Energy: -34.53128235673449 Kcal/mole
 H      3.8514420472     4.8464273139    -2.2457755237
 F      3.2473594365     5.4634431814    -1.9371258537
 H      5.9199763291     4.0562919711    -2.2391918050
 F      5.1287781011     3.8379702790    -2.6481294563
 H      3.9974688574     6.7714587523    -1.2201102487
 F      4.5358860942     7.3864967668    -0.8045093346
 H      6.9372974029     5.0930761622    -0.6314147533
 F      7.2208962956     4.6256838793    -1.3676247247
 H      5.5986078728     6.5518554661     0.1562703308
 F      6.1744677026     5.9616876269     0.5574889471
          10
Energy: -34.53102444905272 Kcal/mole
 H      3.8533586206     4.8492538040    -2.2428173544
 F      3.2494283662     5.4672430682    -1.9358213981
 H      5.9187617800     4.0526864635    -2.2349587547
 F      5.1288425301     3.8381615428    -2.6483540098
 H      3.9948963082     6.7732547389    -1.2194222404
 F      4.5360225620     7.3864014939    -0.8045458318
 H      6.9398404577     5.0922117262    -0.6298931485
 F      7.2207613925     4.6257297357    -1.3677054423
 H      5.5967209584     6.5541555963     0.1617803233
 F      6.1698661624     5.9621369845     0.5641576815
          10
Energy: -34.52985135448472 Kcal/mole
 H      3.8527651175     4.8438485587    -2.2152756501
 F      3.2452767764     5.4590372154    -1.9096781499
 H      5.9149190297     4.0520256314    -2.2376111727
 F      5.1199519000     3.8400886613    -2.6425790522
 H      4.0033589089     6.7711664089    -1.2179385112
 F      4.5393587637     7.3893747656    -0.8039196912
 H      6.9399213636     5.0844660609    -0.6250248771
 F      7.2207571006     4.6261406253    -1.3679636929
 H      5.5969377241     6.5511149208     0.1570393819
 F      6.1698546635     5.9622982853     0.5644091775
          10
Energy: -34.531499362601835 Kcal/mole
 H      3.8459807451     4.8390297637    -2.2189193568
 F      3.2456366716     5.4592928413    -1.9094848597
 H      5.9134407958     4.0556891486    -2.2366481158
 F      5.1200303169     3.8398943202    -2.6426301401
 H      3.9987123484     6.7696167265    -1.2094876451
 F      4.5396052530     7.3894569727    -0.8043679901
 H      6.9390162298     5.0879228040    -0.6282334883
 F      7.2167139278     4.6293269478    -1.3721843128
 H      5.5949884569     6.5500644740     0.1582707634
 F      6.1699580676     5.9623540090     0.5643438555
          10
Energy: -34.53066220740544 Kcal/mole
 H      3.8516913207     4.8431242308    -2.2159484273
 F      3.2453337388     5.4590756393    -1.9096424607
 H      5.9154973952     4.0554759113    -2.2405795734
 F      5.1199212191     3.8399056319    -2.6424215854
 H      3.9983296746     6.7743645070    -1.2161536699
 F      4.5396255529     7.3892051139    -0.8040143729
 H      6.9359012383     5.0895283491    -0.6303979529
 F      7.2168791709     4.6292417773    -1.3720694929
 H      5.5975924058     6.5499918355     0.1545058118
 F      6.1698199342     5.9623578624     0.5645435775
          10
Energy: -34.5301727723369 Kcal/mole
 H      3.8532584386     4.8459220721    -2.2184439932
 F      3.2452506068     5.4589272203    -1.9095100767
 H      5.9136752102     4.0556838618    -2.2371037622
 F      5.1200178818     3.8398946006    -2.6426059691
 H      3.9970623361     6.7702533240    -1.2082525998
 F      4.5396927823     7.3894232027    -0.8044335064
 H      6.9347049647     5.0919436076    -0.6323579650
 F      7.2169426304     4.6291136535    -1.3719655188
 H      5.6025787867     6.5581129626     0.1593321663
 F      6.1695554182     5.9619270553     0.5642875506
          10
Energy: -34.530344149999536 Kcal/mole
 H      3.8506739023     4.8455240080    -2.2226982144
 F      3.2453877105     5.4589483367    -1.9092844001
 H      5.9099272654     4.0586025616    -2.2313930481
 F      5.1202167016     3.8397397703    -2.6429089093
 H      3.9925394997     6.7808686365    -1.2102765738
 F      4.5349097435     7.3932513783    -0.7958964389
 H      6.9340125862     5.0880930912    -0.6302267420
 F      7.2169793595     4.6293179144    -1.3720785752
 H      5.5942121993     6.5514067620     0.1613278185
 F      6.1699992463     5.9622828038     0.5641816858
          10
Energy: -34.53138204827985 Kcal/mole
 H      3.8524006270     4.8451463441    -2.2185906760
 F      3.2452961117     5.4589683709    -1.9095022955
 H      5.9116797170     4.0517092176    -2.2311546598
 F      5.1201237381     3.8401054463    -2.6429215552
 H      3.9934872648     6.7770633488    -1.2058490656
 F      4.5348594667     7.3934532401    -0.7961313080
 H      6.9399190349     5.0885728336    -0.6288118328
 F      7.2165980399     4.6271743884    -1.3714080912
 H      5.5939504630     6.5521430112     0.1627821463
 F      6.1700131308     5.9622437475     0.5641045371
          10
Energy: -34.53149580678797 Kcal/mole
 H      3.8483709379     4.8427554360    -2.2217036636
 F      3.2455098774     5.4590952030    -1.9093371587
 H      5.9118681803     4.0491676302    -2.2302202704
 F      5.1201137405     3.8402402716    -2.6429711224
 H      3.9930580514     6.7778762725    -1.2065032805
 F      4.5348822355     7.3934101163    -0.7960966034
 H      6.9286301636     5.0730967825    -0.6150137628
 F      7.2120586576     4.6086233305    -1.3531341467
 H      5.5999481497     6.5556808238     0.1594513610
 F      6.1696949674     5.9620560747     0.5642812276
          10
Energy: -34.53135144673206 Kcal/mole
 H      3.8510827460     4.8454675054    -2.2217963862
 F      3.2453660223     5.4589513340    -1.9093322400
 H      5.9100163971     4.0480857606    -2.2261475123
 F      5.1202119734     3.8402976623    -2.6431871729
 H      3.9949573498     6.7747546314    -1.2043055502
 F      4.5347814821     7.3935757122    -0.7962131879
 H      6.9321726862     5.0782968888    -0.6169566605
 F      7.2118707350     4.6083474768    -1.3530310805
 H      5.6014105681     6.5563419590     0.1583675294
 F      6.1696173895     5.9620210030     0.5643387223
          10
Energy: -34.53133306719252 Kcal/mole
 H      3.8499832118     4.8422502901    -2.2175615574
 F      3.2454243500     5.4591219998    -1.9095568878
 H      5.9131425658     4.0451052995    -2.2306319027
 F      5.1200461373     3.8404557689    -2.6429492863
 H      3.9960518350     6.7792387890    -1.2130903362
 F      4.5427352044     7.3939765864    -0.8079684605
 H      6.9285345750     5.0787138269    -0.6186168516
 F      7.2120637284     4.6083253592    -1.3529430112
 H      5.6031615885     6.5565509115     0.1562326004
 F      6.1695245019     5.9620099185     0.5644519754
          10
Energy: -34.53255132721577 Kcal/mole
 H      3.8487500852     4.8425360493    -2.2205364185
 F      3.2454897646     5.4591068410    -1.9093990783
 H      5.9094932886     4.0462483862    -2.2242505186
 F      5.1202397231     3.8403951308    -2.6432878040
 H      4.0013631215     6.7768022826    -1.2165008560
 F      4.5424534529     7.3941058374    -0.8077875403
 H      6.9323220791     5.0797797536    -0.6178487919
 F      7.2118628100     4.6082688143    -1.3529837550
 H      5.5987844141     6.5536657729     0.1581436558
 F      6.1697567009     5.9621629685     0.5643505983
          10
Energy: -34.531460914671584 Kcal/mole
 H      3.8486663742     4.8428223603    -2.2212650489
 F      3.2454942052     5.4590916528    -1.9093604262
 H      5.9119111865     4.0417542485    -2.2266367316
 F      5.1201114592     3.8406335344    -2.6431612209
 H      4.0035511261     6.7770036266    -1.2196823696
 F      4.5423373844     7.3940951566    -0.8076187683
 H      6.9325815408     5.0784685834    -0.6169110627
 F      7.2118490462     4.6083383688    -1.3530334993
 H      5.5963856740     6.5519707097     0.1590593552
 F      6.1698839485     5.9622528876     0.5643020226
          10
Energy: -34.53170123621274 Kcal/mole
 H      3.8472040971     4.8416094053    -2.2216898659
 F      3.2455717757     5.4591559973    -1.9093378906
 H      5.9108664740     4.0496748163    -2.2285606098
 F      5.1201668787     3.8402133666    -2.6430591636
 H      3.9956188672     6.7811724117    -1.2154279785
 F      4.5427581724     7.3938740121    -0.8078444539
 H      6.9282505872     5.0765907732    -0.6173709363
 F      7.2120787933     4.6084379823    -1.3530091041
 H      5.5951205194     6.5500912033     0.1581225101
 F      6.1699510620     5.9623525911     0.5643517200
          10
Energy: -34.53186396344029 Kcal/mole
 H      3.8484052929     4.8439332679    -2.2239505249
 F      3.2455080550     5.4590327217    -1.9092179679
 H      5.9099628942     4.0525822396    -2.2283180143
 F      5.1202148116     3.8400591345    -2.6430720327
 H      4.0004262619     6.7751902135    -1.2128036698
 F      4.5425031512     7.3941913539    -0.8079836675
 H      6.9330502982     5.0761922685    -0.6152851954
 F      7.2118241797     4.6084591221    -1.3531197478
 H      5.6016190480     6.5606996553     0.1608123977
 F      6.1735931984     5.9714983051     0.5689500464
          10
Energy: -34.53103241882974 Kcal/mole
 H      3.8472272382     4.8439567376    -2.2262419514
 F      3.2455705481     5.4590314767    -1.9090964130
 H      5.9067559850     4.0498512125    -2.2410138623
 F      5.1163109737     3.8430655279    -2.6573374921
 H      4.0012925674     6.7728088864    -1.2140418236
 F      4.5471959182     7.3898182713    -0.8113285875
 H      6.9334434949     5.0753498049    -0.6146035232
 F      7.2118033215     4.6085038128    -1.3531559090
 H      5.6009533188     6.5577359458     0.1574929733
 F      6.1736285138     5.9716555231     0.5691261342
          10
Energy: -34.53095223444544 Kcal/mole
 H      3.8476251207     4.8438437409    -2.2252661169
 F      3.2455494413     5.4590374709    -1.9091481788
 H      5.9060110799     4.0473656026    -2.2383822472
 F      5.1163504892     3.8431973838    -2.6574770932
 H      4.0015270732     6.7742224266    -1.2165147598
 F      4.5471834782     7.3897432863    -0.8111974040
 H      6.9358068624     5.0783718562    -0.6156342895
 F      7.2116779503     4.6083435000    -1.3531012292
 H      5.5984489519     6.5545545142     0.1564697243
 F      6.1737613646     5.9718242907     0.5691804152
          10
Energy: -34.530452955746654 Kcal/mole
 H      3.8498500625     4.8475407576    -2.2281781010
 F      3.2454314133     5.4588413527    -1.9089937047
 H      5.9068274612     4.0439821708    -2.2382874190
 F      5.1163071820     3.8433768670    -2.6574821236
 H      4.0017774046     6.7752548552    -1.2184134790
 F      4.5471701987     7.3896885184    -0.8110966813
 H      6.9355955870     5.0802265849    -0.6168990741
 F      7.2116891580     4.6082451109    -1.3530341353
 H      5.6077838648     6.5479188286     0.1581871716
 F      6.1792199982     5.9607340713     0.5699684316
          10
Energy: -34.53098889077367 Kcal/mole
 H      3.8472612842     4.8414476316    -2.2212595136
 F      3.2455687420     5.4591645790    -1.9093607198
 H      5.9053643313     4.0551215636    -2.2289544020
 F      5.1134144269     3.8427081174    -2.6395452893
 H      4.0006428075     6.7752634094    -1.2169025546
 F      4.5472303865     7.3896880646    -0.8111768324
 H      6.9357391403     5.0762464462    -0.6143094635
 F      7.2116815428     4.6084562481    -1.3531715082
 H      5.6106790855     6.5546941924     0.1639426096
 F      6.1790664134     5.9603746539     0.5696631189
          10
Energy: -34.53117701256798 Kcal/mole
 H      3.8462965398     4.8402129834    -2.2206706726
 F      3.2456199195     5.4592300742    -1.9093919565
 H      5.9039674659     4.0500173066    -2.2236909431
 F      5.1134885273     3.8429788864    -2.6398245037
 H      4.0048111129     6.7726903880    -1.2185866696
 F      4.5470092675     7.3898245574    -0.8110874940
 H      6.9335579562     5.0765160163    -0.6152988797
 F      7.2117972496     4.6084419480    -1.3531190219
 H      5.6080744361     6.5538396989     0.1663571628
 F      6.1792045841     5.9604199828     0.5695350325
          10
Energy: -34.53156148836703 Kcal/mole
 H      3.8488474457     4.8455634006    -2.2262755865
 F      3.2454845998     5.4589462470    -1.9090946287
 H      5.9043368711     4.0510000326    -2.2248847902
 F      5.1134689312     3.8429267551    -2.6397611728
 H      4.0018643437     6.7747636406    -1.2177880695
 F      4.5471655868     7.3897145762    -0.8111298579
 H      6.9377061678     5.0831841945    -0.6180141208
 F      7.2115771966     4.6080882166    -1.3529749847
 H      5.6066081309     6.5533658277     0.1548137580
 F      6.1802129963     5.9659824808     0.5632831720
          10
Energy: -34.532791284837856 Kcal/mole
 H      3.8486958638     4.8436992117    -2.2229345225
 F      3.2454926409     5.4590451379    -1.9092718645
 H      5.9031437236     4.0520209239    -2.2231293729
 F      5.1135322250     3.8428725992    -2.6398542937
 H      4.0006926032     6.7735996803    -1.2144386396
 F      4.5472277449     7.3897763216    -0.8113075374
 H      6.9407618627     5.0785811694    -0.6139337586
 F      7.2114150990     4.6083323964    -1.3531914384
 H      5.6089331136     6.5572442774     0.1570194308
 F      6.1834931784     5.9717536288     0.5668613910
          10
Energy: -34.53324782907342 Kcal/mole
 H      3.8500346563     4.8424692337    -2.2178988002
 F      3.2454216210     5.4591103854    -1.9095389979
 H      5.9042678580     4.0505419577    -2.2245239313
 F      5.1134725922     3.8429510549    -2.6397803156
 H      4.0028515443     6.7733780343    -1.2170119896
 F      4.5471132181     7.3897880794    -0.8111710271
 H      6.9371891727     5.0788930736    -0.6154509786
 F      7.2116046220     4.6083158506    -1.3531109534
 H      5.6078635748     6.5578836377     0.1594417320
 F      6.1835499150     5.9717197122     0.5667328935
          10
Energy: -34.5322615157707 Kcal/mole
 H      3.8490023161     4.8440273774    -2.2229886402
 F      3.2454763843     5.4590277294    -1.9092689936
 H      5.9036027892     4.0470724620    -2.2215500061
 F      5.1135078726     3.8431351036    -2.6399380754
 H      4.0040088015     6.7715932009    -1.2158454305
 F      4.5470518283     7.3898827607    -0.8112329104
 H      6.9353431147     5.0837279620    -0.6192514867
 F      7.2117025511     4.6080593710    -1.3529093453
 H      5.6093208348     6.5589973543     0.1589894137
 F      6.1834726107     5.9716606321     0.5667568879
          10
Energy: -34.533651739392525 Kcal/mole
 H      3.8496141625     4.8433796999    -2.2205304368
 F      3.2454439273     5.4590620872    -1.9093993956
 H      5.9088529777     4.0471470575    -2.2259546726
 F      5.1173454103     3.8375702422    -2.6388497310
 H      4.0001899106     6.7750320425    -1.2159405035
 F      4.5472544116     7.3897003381    -0.8112278670
 H      6.9356301239     5.0766061232    -0.6145780495
 F      7.2116873259     4.6084371681    -1.3531572603
 H      5.6101412820     6.5598136534     0.1590116979
 F      6.1834290879     5.9716173293     0.5667557058
          10
Energy: -34.53320050088362 Kcal/mole
 H      3.8471986981     4.8406867911    -2.2198691551
 F      3.2455720621     5.4592049398    -1.9094344751
 H      5.9082425394     4.0468530711    -2.2246380550
 F      5.1173777927     3.8375858375    -2.6389195745
 H      4.0033602651     6.7747195028    -1.2197195238
 F      4.5470862316     7.3897169176    -0.8110273987
 H      6.9382766145     5.0781056256    -0.6091165487
 F      7.2128206237     4.6064265723    -1.3460245876
 H      5.6078189413     6.5570511184     0.1583092335
 F      6.1835522827     5.9717638754     0.5667929699
          10
Energy: -34.5328436343558 Kcal/mole
 H      3.8472374706     4.8410442919    -2.2205054015
 F      3.2455700053     5.4591859752    -1.9094007237
 H      5.9074386055     4.0421002904    -2.2207512871
 F      5.1174204395     3.8378379616    -2.6391257586
 H      3.9996738784     6.7745287935    -1.2144751719
 F      4.5472817859     7.3897270343    -0.8113055994
 H      6.9394198831     5.0812964435    -0.6107430832
 F      7.2127599759     4.6062573068    -1.3459383037
 H      5.6090544504     6.5571579270     0.1567261088
 F      6.1834867418     5.9717582095     0.5668769510
          10
Energy: -34.53218110926039 Kcal/mole
 H      3.8464517295     4.8394398204    -2.2188268673
 F      3.2456116870     5.4592710887    -1.9094897661
 H      5.9054635596     4.0437679386    -2.2178549597
 F      5.1175252111     3.8377494967    -2.6392794020
 H      4.0024977875     6.7726959366    -1.2154978344
 F      4.5471319841     7.3898242631    -0.8112513495
 H      6.9343870931     5.0804278857    -0.6120729736
 F      7.2130269538     4.6063033818    -1.3458677561
 H      5.6111283164     6.5603700760     0.1584286995
 F      6.1833767280     5.9715878124     0.5667866325
          10
Energy: -34.533241512212214 Kcal/mole
 H      3.8487374310     4.8438609077    -2.2231716601
 F      3.2454904358     5.4590365603    -1.9092592849
 H      5.9077615249     4.0443953043    -2.2224921219
 F      5.1174033094     3.8377162164    -2.6390334113
 H      4.0038593314     6.7722993727    -1.2167222467
 F      4.5470597573     7.3898452999    -0.8111863973
 H      6.9387420781     5.0811695086    -0.6109134296
 F      7.2127959319     4.6062640404    -1.3459292672
 H      5.6111966773     6.5584962631     0.1556457044
 F      6.1833731016     5.9716872138     0.5669342640
          10
Energy: -34.53329091262421 Kcal/mole
 H      3.8505839022     4.8433021830    -2.2184852719
 F      3.2453924848     5.4590661993    -1.9095078869
 H      5.9091029022     4.0463188230    -2.2260143350
 F      5.1173321524     3.8376141782    -2.6388465660
 H      4.0013008416     6.7748748077    -1.2171996835
 F      4.5471954793     7.3897086790    -0.8111610704
 H      6.9358760370     5.0777512423    -0.6097886097
 F      7.2129479687     4.6064453716    -1.3459889363
 H      5.6089679312     6.5552749697     0.1592522510
 F      6.1822227677     5.9685610709     0.5691726009
          10
Energy: -34.53310750557776 Kcal/mole
 H      3.8488682993     4.8430030466    -2.2212314378
 F      3.2454834936     5.4590820678    -1.9093622092
 H      5.9089478240     4.0463999563    -2.2257580498
 F      5.1173403790     3.8376098742    -2.6388601614
 H      4.0026563749     6.7754616129    -1.2198983986
 F      4.5471235714     7.3896775503    -0.8110179098
 H      6.9370871756     5.0774467817    -0.6091392981
 F      7.2128837206     4.6064615225    -1.3460233808
 H      5.6109462513     6.5561219146     0.1577068984
 F      6.1821178224     5.9685161424     0.5692545783
          10
Energy: -34.53310661679373 Kcal/mole
 H      3.8464207575     4.8405008782    -2.2210031308
 F      3.2456133300     5.4592148021    -1.9093743203
 H      5.9075393167     4.0439340342    -2.2218424894
 F      5.1174150970     3.8377406857    -2.6390678728
 H      4.0050575600     6.7731191196    -1.2195623233
 F      4.5469961940     7.3898018142    -0.8110357378
 H      6.9357040306     5.0787039066    -0.6104642250
 F      7.2129570933     4.6063948349    -1.3459530965
 H      5.6114627661     6.5574786932     0.1589318650
 F      6.1820904225     5.9684441685     0.5691895967
          10
Energy: -34.532215036916625 Kcal/mole
 H      3.8481670712     4.8444102040    -2.2253352784
 F      3.2455206921     5.4590074214    -1.9091445099
 H      5.9095475034     4.0431023316    -2.2252551413
 F      5.1173085674     3.8377848056    -2.6388868395
 H      4.0013391890     6.7764407709    -1.2196117338
 F      4.5471934450     7.3896256083    -0.8110331167
 H      6.9332430541     5.0743152647    -0.6085942969
 F      7.2130876424     4.6066276422    -1.3460522918
 H      5.5962847603     6.5513530113     0.1593483103