          10
Energy: -34.18373020039064 Kcal/mole
 H      5.5827890941     4.6430263027    -2.5840468886
 F      5.5503853575     5.5543295155    -2.6808221551
 H      6.1671395728     2.7774554462    -1.4354926122
 F      5.6567722076     2.9974170121    -2.1648972065
 H      6.5456082909     6.3238658399    -1.4827005025
 F      7.0897283182     6.5784244103    -0.7898640642
 H      6.9245526623     3.4498031873     0.5397362295
 F      7.0434732445     2.6946570734     0.0332767131
 H      6.8118434250     5.6627123316     0.6230158575
 F      6.6687689766     4.9841677623     1.2230124988
          10
Energy: -33.990529471997746 Kcal/mole
 H      6.3422756661     4.8047119923    -2.6234090876
 F      6.7283048554     5.6043994316    -2.8522550282
 H      6.1354398702     3.0353550567    -1.3170800284
 F      5.5951311852     3.4648895449    -1.9207816503
 H      6.9954934932     6.5157337295    -1.4289788339
 F      7.2048172244     6.7581481996    -0.5697304413
 H      7.2011823143     3.3314992091     0.5387930701
 F      7.1007077357     2.6007967012    -0.0060626026
 H      7.2779876451     5.5439484997     0.6199879313
 F      7.2655571930     4.8267173536     1.1912269067
          10
Energy: -34.20248188104577 Kcal/mole
 H      6.2391570517     4.3596653543    -2.6958633307
 F      6.1711987908     5.2657679792    -2.8193489893
 H      6.4825828620     2.6741353479    -1.2439539674
 F      6.3818380295     2.7826865637    -2.1489159070
 H      5.8090849365     6.1875401137    -1.4146853116
 F      5.7512046041     6.5409432054    -0.5705022024
 H      6.0345211996     3.3639747741     0.7957298049
 F      6.6289116218     2.7674956605     0.4326847760
 H      5.2448183457     5.3926886338     0.5671450918
 F      4.9821015517     4.6658363872     1.0606577034
          10
Energy: -34.08854552475279 Kcal/mole
 H      6.2273175235     4.2839563621    -2.8675532339
 F      5.9347448838     5.1503258821    -2.9360667748
 H      6.3882759417     2.4026617282    -1.8836826102
 F      6.7983096348     2.7712630041    -2.6164134407
 H      5.1859384546     5.8795545762    -1.5918200817
 F      4.8735723791     6.1817193527    -0.7843469350
 H      5.4159571973     2.9349186114     0.0385024920
 F      5.3604738894     2.1961953207    -0.5019588870
 H      5.3693987504     5.0600225800     0.3432614492
 F      5.6657992157     4.3725683540     0.8728296236
          10
Energy: -34.205000719239564 Kcal/mole
 H      6.6650549609     4.5694160397    -2.5488420768
 F      6.4414253655     5.4532820342    -2.4505582644
 H      6.2324914971     2.4963921342    -1.7925415222
 F      6.8448191867     2.9036844094    -2.3403159311
 H      5.0336675574     5.8928490542    -1.6080236417
 F      4.3198710632     5.9372481213    -1.0340791430
 H      4.8344463427     2.7532711411    -0.2398214116
 F      4.9512533412     2.0795919828    -0.8508872973
 H      4.5170645232     4.8290209214     0.1857777078
 F      4.7327918484     4.1180430715     0.7232358161
          10
Energy: -34.28555216123371 Kcal/mole
 H      6.2279274445     4.1417317285    -2.3676628383
 F      5.7283376254     4.8957929820    -2.5182969600
 H      6.3750362210     2.3361717194    -1.4041317165
 F      6.9969619396     2.8082039845    -1.8850505674
 H      5.3024372328     5.6650358630    -1.0675144167
 F      5.1243158935     5.9461367988    -0.2130297461
 H      4.9917094719     2.5415905651     0.2364581487
 F      5.0933572789     1.9199257109    -0.4299422808
 H      5.0705402883     4.6314013657     0.7840387800
 F      4.9878326774     3.8548629282     1.2647013501
          10
Energy: -34.00638953627461 Kcal/mole
 H      7.0739118215     4.4398647511    -2.4391041329
 F      7.2165528237     5.3156196511    -2.2075962505
 H      5.6854128340     2.7518934233    -2.4410453926
 F      6.5260207775     2.8837335371    -2.7829305629
 H      6.6468709440     5.6033378775    -0.7151329449
 F      6.1850623865     5.6810699914     0.0732702354
 H      3.9641976690     3.6252031257    -1.1445584340
 F      4.1778787072     2.8302320273    -1.5486009648
 H      4.5006389407     5.4142804845    -0.1500975709
 F      3.6921414759     5.0278010882    -0.3446599665
          10
Energy: -34.079192071073976 Kcal/mole
 H      7.2571457956     3.7752906018    -2.1431672398
 F      7.4300450175     4.6653928583    -2.2799620934
 H      5.7978831919     2.3232233835    -1.4255391062
 F      6.7000543171     2.2871481558    -1.5857728065
 H      7.0073007747     5.3770624700    -0.8402272894
 F      6.7161570884     5.7362350277    -0.0483185650
 H      4.0922044535     3.3896142579    -0.6517136828
 F      4.1551678726     2.5736196527    -1.0653287358
 H      5.0376074586     5.2606481366     0.1274704199
 F      4.1935139586     4.9172035452     0.0252893267
          10
Energy: -34.25866590531851 Kcal/mole
 H      7.0805204962     3.9227520570    -2.5018710434
 F      7.1603998806     4.8265833985    -2.6345254442
 H      5.8674333812     2.1985191189    -1.9562734637
 F      6.7679362223     2.3130455422    -2.0861477550
 H      6.4127503560     5.7049402995    -1.4282521211
 F      5.9922562842     6.0386861919    -0.6848226256
 H      4.1167946799     2.9033612518    -1.0501323699
 F      4.2414775832     2.2580005691    -1.6895483243
 H      4.8333405600     4.8947860078    -0.1708895364
 F      4.2187243002     4.2407325236     0.0171261360
          10
Energy: -34.33439542451649 Kcal/mole
 H      6.9816043996     3.8854009686    -2.4577646866
 F      7.4204696051     4.6160421633    -2.1194604211
 H      5.3089727037     2.3980056717    -2.3833246533
 F      6.0951365444     2.5167478506    -2.8402006872
 H      6.4468011121     5.4501285830    -1.0364812269
 F      5.8499194179     5.7471520055    -0.4068795039
 H      4.0636415428     2.8698150739    -0.6550201688
 F      3.9300314644     2.4267266540    -1.4466703435
 H      4.9857229063     4.5689715623     0.3781326426
 F      4.5114707450     3.8230277501     0.6221443567
          10
Energy: -34.39819236966176 Kcal/mole
 H      6.5092081979     4.4694826877    -2.7368108555
 F      6.7857386417     5.3383142720    -2.6390786101
 H      5.0577462333     3.0559691401    -2.0366428019
 F      5.8154972152     2.9475082709    -2.5415573385
 H      7.1386212699     5.6110605914    -1.0371547481
 F      7.2314806720     5.5933674108    -0.1250401266
 H      4.1210565878     4.1393199360    -0.3728470996
 F      3.8245990851     3.6157167832    -1.0648309776
 H      5.7554112024     5.2700602936     0.5699347962
 F      4.8919440226     5.0498954395     0.7863623047
          10
Energy: -34.25706022187239 Kcal/mole
 H      6.7492733020     5.1410285398    -2.5714045186
 F      7.2905580762     5.8388400273    -2.3245059137
 H      4.9390942764     3.8793420983    -2.0293005358
 F      5.5381857081     3.9444487955    -2.7204876120
 H      7.2912741386     5.9622425689    -0.6700675904
 F      7.0872645900     5.9698658561     0.2239184216
 H      4.0199718239     4.5767861280    -0.2557778399
 F      3.8915053698     3.8326155057    -0.7759657436
 H      5.4445055300     6.0036280338     0.6016577840
 F      4.5332462280     5.9051796250     0.6300020138
          10
Energy: -34.33139936172708 Kcal/mole
 H      6.8605558860     4.7485398791    -2.1088094150
 F      7.4168353413     5.3816603260    -1.7474222717
 H      5.1756241044     3.3972921499    -1.8056161785
 F      5.7759984754     3.5555647976    -2.4804416252
 H      6.7961472364     6.1203099001    -0.4330842805
 F      6.3424776673     6.4915298735     0.2720885021
 H      3.9780307110     4.1258711389    -0.2366665056
 F      4.1798168250     3.2726341436    -0.5052889062
 H      4.7340168386     6.1025549825     0.1614596214
 F      3.8928754731     5.7474466307     0.0762055213
          10
Energy: -34.260174547905024 Kcal/mole
 H      6.5986098143     4.8223006289    -2.6067886565
 F      7.2895548273     5.3202423913    -2.2668798594
 H      4.8083149298     3.6719813235    -2.1701181595
 F      5.2603938478     3.8326317827    -2.9515943792
 H      6.7246817685     6.4803039995    -1.1969564021
 F      6.3137028760     7.0635925409    -0.6209704409
 H      3.9537479971     4.5730033737    -0.3737960541
 F      4.1456082269     3.7148551133    -0.6339118273
 H      4.7145156596     6.6734868450    -0.3058118319
 F      3.9015762494     6.2797643787    -0.1476943604
          10
Energy: -34.214426730401414 Kcal/mole
 H      6.5891105589     4.9311873740    -2.9493168399
 F      6.6117310820     5.7779101738    -3.3006540172
 H      5.7223122037     3.5862763432    -1.4437777104
 F      6.2770737605     3.4479535765    -2.1607124545
 H      6.5397818446     6.9857439552    -2.1479533021
 F      6.3908528463     7.4953116048    -1.4002568638
 H      4.5628445213     4.9224321866    -0.1886159802
 F      4.8550107622     4.0550531970    -0.1322105184
 H      4.9578838762     6.9912524203    -0.7718821463
 F      4.2529661442     6.5320967612    -0.4069765807
          10
Energy: -34.303208072969056 Kcal/mole
 H      6.9889764480     5.2719223027    -3.0639086287
 F      7.4835946482     6.0383824957    -2.9702037272
 H      5.4610341988     4.0030742657    -2.1995740936
 F      5.9141632059     4.0006810488    -2.9967926179
 H      6.8340017802     7.0089582060    -1.8145570158
 F      6.3461792755     7.4777578568    -1.1955698663
 H      4.3334966855     5.1271880073    -0.8694832253
 F      4.7649075779     4.3279846554    -0.7428039282
 H      4.7037858842     7.0523010515    -1.1955253050
 F      3.8828115587     6.6487016420    -1.2587524615
          10
Energy: -34.14507214217045 Kcal/mole
 H      6.5439433408     5.4108117681    -3.1717032422
 F      6.6468299090     6.3218295829    -3.1904087320
 H      5.5630290796     3.6327626777    -2.1149754163
 F      6.1388744343     3.8169869094    -2.8044335802
 H      6.5723339477     7.0941837066    -1.6892763215
 F      6.3563448717     7.3373514457    -0.8318924112
 H      4.2771099949     4.4234029669    -0.5987054513
 F      4.4307855426     3.5693185131    -0.8950373124
 H      4.8906755017     6.6130007146    -0.4832295068
 F      4.1261093335     6.1098544774    -0.4269139821
          10
Energy: -34.182680288214925 Kcal/mole
 H      6.2834858442     5.3814608503    -3.5033985170
 F      6.3305443122     6.2957103308    -3.5565246692
 H      5.5617527768     3.6848995776    -2.3731570479
 F      5.9679564165     3.7945699641    -3.1879330965
 H      6.2937123236     7.0755819324    -2.1071499095
 F      6.2094601010     7.2797821982    -1.2171539463
 H      4.4998061470     4.5099353935    -0.6309379434
 F      4.8952711238     3.7121903774    -0.8502535643
 H      4.7723976811     6.6211006587    -0.7140505214
 F      4.0324677626     6.0936927668    -0.5906259240
          10
Energy: -34.332609389022764 Kcal/mole
 H      5.6893415949     5.5454381657    -3.7506256838
 F      6.0180198129     6.3953897156    -3.6484396192
 H      4.4348285023     4.0250330155    -2.9907707139
 F      5.0692737416     4.0517588579    -3.6523249200
 H      6.4604251275     6.5310563009    -2.0487263524
 F      6.5053492211     6.5655643774    -1.1334777422
 H      3.5581111471     4.8143241736    -1.2009515425
 F      3.3899521609     4.0907917045    -1.7386432027
 H      4.9676593830     6.3175341883    -0.5198046764
 F      4.0924925764     6.1303713833    -0.3199493660
          10
Energy: -34.23361009186888 Kcal/mole
 H      5.7806964543     5.5554539181    -3.3106601464
 F      5.8260340676     6.4706441796    -3.3461606527
 H      4.7772774612     3.8959500244    -2.4015349263
 F      5.5058018114     3.9645592496    -2.9541958036
 H      5.6055982957     7.1384862860    -1.7974401169
 F      5.5082505676     7.3625523684    -0.9135810724
 H      4.0854625716     4.3358991199    -0.4707089695
 F      3.6281375549     4.0494330649    -1.2121130621
 H      5.2778803696     5.9927846573     0.0653078071
 F      5.1441884420     5.1936833374     0.4947872002
          10
Energy: -34.2633776914675 Kcal/mole
 H      5.9668867593     5.0835810703    -3.2740852956
 F      5.9793205402     5.9987427970    -3.3307722883
 H      5.0862557211     3.4480784075    -2.1324962462
 F      5.6822459964     3.4739977005    -2.8289248370
 H      5.5916086909     6.9537991719    -1.9958056689
 F      5.4081774115     7.3735766479    -1.2014324339
 H      4.4489524862     4.2582594800    -0.1617648486
 F      4.1089831861     3.6434098641    -0.7510608904
 H      5.3360213985     6.2567366161    -0.0071020673
 F      5.2962828586     5.5389351473     0.5621701874
          10
Energy: -34.323080604513564 Kcal/mole
 H      5.4315301255     5.2218228305    -3.3912074064
 F      5.2141112409     6.0904263324    -3.5890608500
 H      5.1241793167     3.5114490368    -2.0702355197
 F      5.6884496365     3.6702737806    -2.7754040861
 H      5.1609561130     7.0082616416    -2.2007639952
 F      5.0913207777     7.3872577042    -1.3686570882
 H      4.5194429480     4.3577629820    -0.1626948058
 F      4.1067089830     3.7550208183    -0.7169885531
 H      5.2945576947     6.3248161906    -0.0897494979
 F      5.3277040126     5.6437866069     0.5234299437
          10
Energy: -34.23174206483574 Kcal/mole
 H      5.2795938048     5.3589640569    -3.1333124492
 F      5.1376837828     6.2594634875    -3.2325662715
 H      4.8043768926     3.6084477196    -1.8931327593
 F      5.3735777176     3.7505597015    -2.5979047831
 H      4.9834801611     7.1737171365    -1.7837782804
 F      4.8681821578     7.4711262781    -0.9240439185
 H      4.3553316470     4.3368309225     0.0163106608
 F      3.9129171755     3.7405184778    -0.5218063374
 H      5.1996180810     6.2595668922     0.1548848033
 F      5.2994312099     5.5376332324     0.7114260239
          10
Energy: -34.34165878429479 Kcal/mole
 H      4.6715223131     5.1382578392    -3.1088600487
 F      4.3930194147     6.0037330716    -3.2283496207
 H      4.6844640126     3.3886312694    -1.9110243864
 F      5.0559130936     3.5591445417    -2.7319018464
 H      4.3411681909     6.8706288174    -1.8187208393
 F      4.2597606129     7.2412488211    -0.9839139041
 H      4.3159358666     4.1038373648     0.1178841368
 F      3.9462242345     3.4448262705    -0.4016413069
 H      4.7304407657     6.1938618581     0.2697734061
 F      4.9446684439     5.4776258857     0.8008115720
          10
Energy: -34.10814552126922 Kcal/mole
 H      4.7109335051     5.3423777030    -3.0461945361
 F      4.2039463056     6.1064597275    -3.0405696624
 H      5.2062483411     3.6281554145    -1.9224559773
 F      5.5545751209     3.9437291913    -2.7098381246
 H      4.3806851345     7.0648599241    -1.6931265533
 F      4.4662747724     7.4895238403    -0.8849038290
 H      4.8479494535     4.1342797014     0.1433045283
 F      4.5801713804     3.4451836012    -0.3992177923
 H      4.9142941292     6.3009014003     0.3457861964
 F      5.2483224964     5.5873170184     0.8149464886
          10
Energy: -34.327090322567784 Kcal/mole
 H      5.4100095030     5.5522360669    -2.8687150281
 F      4.6883869415     6.1174359403    -2.8951532937
 H      6.5036001139     4.0350050341    -1.7098352252
 F      6.5965961522     4.4167996195    -2.5383722680
 H      3.8588215006     6.1798318342    -1.4814340303
 F      3.4397356348     6.1667859520    -0.6659060774
 H      5.9770983783     4.2136121861     0.2888364840
 F      6.1910414506     3.4772558273    -0.2140518483
 H      4.6410150701     5.8601270889     0.4738715930
 F      5.3885375883     5.6199716463     0.9476061687
          10
Energy: -34.32826700194855 Kcal/mole
 H      5.3163688559     5.7900797536    -2.8775908742
 F      4.5874087339     6.3444744880    -2.9239871998
 H      6.5424850824     4.2696419204    -1.7495062308
 F      6.5633290560     4.7302053333    -2.5421826285
 H      3.9474958046     6.6134841764    -1.4429207031
 F      3.6583363360     6.6296497816    -0.5728549154
 H      6.0783332637     4.3385603556     0.2982413750
 F      6.2724633410     3.6395988589    -0.2627001008
 H      4.8772842252     6.1356518646     0.4744602172
 F      5.6182547421     5.8236988100     0.9155236874
          10
Energy: -34.284394909182936 Kcal/mole
 H      5.1045571323     5.5801709802    -2.9787510554
 F      4.7878320483     6.4407227013    -2.9837466961
 H      5.8220352410     3.8691831532    -1.8644196054
 F      5.7050553487     4.0477210951    -2.7562317539
 H      3.9491333769     6.9149198731    -1.5564296640
 F      3.6304742275     6.9483521983    -0.6972279263
 H      5.6807436334     4.4751310161     0.2604539703
 F      5.8404365929     3.6905107140    -0.1864891360
 H      4.7572058719     6.4100716037     0.3431692066
 F      5.4311980370     6.0135211270     0.8220964254
          10
Energy: -34.350389921987016 Kcal/mole
 H      5.0946009505     5.7564932655    -2.8900637534
 F      4.6365324082     6.5496482793    -2.8457091063
 H      6.2423943573     4.2306732740    -1.8400960167
 F      5.9391306082     4.3663352511    -2.6947982610
 H      3.9304241949     6.6880735866    -1.3278006781
 F      3.6853695621     6.6335117335    -0.4458368290
 H      6.4637447613     4.8732676128     0.3302842427
 F      6.7059818708     4.1708500108    -0.2071352352
 H      5.0198930041     6.5141375200     0.5432269589
 F      5.8192560145     6.3273207025     0.9518921695
          10
Energy: -34.46342192821575 Kcal/mole
 H      5.1336005330     5.6200100733    -2.9896028926
 F      4.6226433988     6.3783365770    -3.0585428717
 H      6.5151363420     4.4410157153    -1.7393014461
 F      6.1540548566     4.3288074484    -2.5747165918
 H      3.8299110110     6.6839425212    -1.6200329736
 F      3.5411078451     6.7797246042    -0.7549852732
 H      6.5740829720     5.5529542322     0.1951964697
 F      6.9889946030     4.8317919485    -0.1903710329
 H      4.8839396143     6.8869604622     0.2367674880
 F      5.6971754038     6.8756508091     0.6603340617
          10
Energy: -34.339412353138044 Kcal/mole
 H      4.7400222024     5.3791592460    -3.2096299753
 F      4.1350342230     6.0668248021    -3.2542912319
 H      6.4041294696     4.2624084660    -2.0688883557
 F      5.8744650752     4.1528214328    -2.8093850211
 H      3.7115551584     6.3457632254    -1.6722928548
 F      3.6487008446     6.4661160879    -0.7654006210
 H      6.8525931053     5.6326197699    -0.4104035001
 F      7.1485608359     4.8035410717    -0.6671536015
 H      5.1633246480     6.9266156791    -0.3151778967
 F      6.0600126983     7.0570842960    -0.1744033236
          10
Energy: -34.19922967774471 Kcal/mole
 H      4.2767973080     4.4807194618    -2.6416345242
 F      3.4354653634     4.8334588903    -2.5487665827
 H      6.3291780841     4.1775909728    -1.9275795598
 F      5.8836320944     3.9761005161    -2.7033239551
 H      3.4306744619     5.8142057816    -1.2631148043
 F      3.6086870330     6.2896177908    -0.4994499917
 H      6.7395240532     5.6338358896    -0.3560518266
 F      6.9280598552     4.7424031167    -0.4594484550
 H      5.1643722805     6.9081851183    -0.2995766902
 F      6.0493749024     7.1462576724    -0.2682586730
          10
Energy: -34.30987739244753 Kcal/mole
 H      4.4648944067     4.8689469889    -2.8294661195
 F      3.6113183807     4.9771511493    -2.5123087019
 H      6.4639242228     4.6330766065    -2.2645947060
 F      6.0887695801     4.7405541903    -3.0944118926
 H      3.5315436503     6.2353558565    -1.3962567975
 F      3.6475667471     6.8291096557    -0.7071384716
 H      6.6603434482     5.2573518258    -0.2100472464
 F      6.9230372602     4.5320860102    -0.7059005088
 H      5.0836786600     6.7195227410     0.1120608121
 F      5.9253035769     6.5635608334     0.4410477153
          10
Energy: -34.314853027182295 Kcal/mole
 H      4.6898692194     4.7554992808    -2.5957833192
 F      3.8421817307     4.7229987160    -2.2475612138
 H      6.7988885976     4.7967140516    -2.2683721776
 F      6.2682986906     4.8721148385    -3.0124676499
 H      3.8506543658     5.7689026116    -0.9527231458
 F      3.9198796954     6.3738074405    -0.2670213143
 H      7.1628403856     5.4511548637    -0.1784476057
 F      7.4625616573     4.7762592764    -0.7221130410
 H      5.4696854015     6.6174940575     0.3692319869
 F      6.3478284040     6.6890219709     0.6234712930
          10
Energy: -34.40260681357691 Kcal/mole
 H      4.6782715649     4.6139868075    -2.6553757330
 F      3.8304032578     4.5839815623    -2.3073699584
 H      6.7736659615     4.8009045703    -2.2606094813
 F      6.2885887676     4.9281711110    -3.0283284036
 H      3.6103800642     5.6646075832    -1.0498561801
 F      3.6424292221     6.2073848164    -0.3114425246
 H      6.9803563816     5.3253681754    -0.2505292558
 F      7.3886352189     4.6731866358    -0.7493845760
 H      5.1644534080     6.4216625681     0.3105128016
 F      6.0582837996     6.4811063139     0.5065298216
          10
Energy: -34.38348009228514 Kcal/mole
 H      4.6287145273     4.5938457181    -2.4223613484
 F      3.8471829602     4.4601367615    -1.9616886614
 H      6.6382864681     4.9666612773    -2.0950707766
 F      6.1660199729     5.0528865441    -2.8763636543
 H      3.5972754299     5.8472663576    -1.0882508643
 F      3.6321905036     6.6343314034    -0.6189976797
 H      6.8172469738     5.4181632807     0.0166186174
 F      7.2398017119     4.8329466775    -0.5489413003
 H      5.0082743171     6.6151138421     0.3412696794
 F      5.8228147899     6.5414685739     0.7559854769
          10
Energy: -34.342738639773444 Kcal/mole
 H      4.6452755776     4.6870811867    -2.8056517648
 F      3.7550870245     4.8044219518    -2.6194140543
 H      6.8111365589     4.6387332075    -2.1706999907
 F      6.3493973090     4.6404660784    -2.9629643798
 H      3.6924473026     5.8199221252    -1.3290738600
 F      3.7746271953     6.3539409659    -0.5881559542
 H      7.0844873074     5.6178714895    -0.3689162357
 F      7.4319456437     4.8175560300    -0.6511517223
 H      5.3304476095     6.9038535078    -0.2652954663
 F      6.2343027690     7.0262379377    -0.1706545551
          10
Energy: -34.43047566512908 Kcal/mole
 H      4.7427341917     4.5698120921    -2.9578935184
 F      3.9268038249     4.9314894802    -2.7473321177
 H      6.8117410080     4.2543211091    -2.4284968673
 F      6.3262890009     4.1168627761    -3.1942191116
 H      3.9539947605     6.0783246339    -1.5376035155
 F      4.0781344863     6.6598167598    -0.8395023509
 H      7.2736861139     5.4164363357    -0.6680431681
 F      7.4849851035     4.5645280178    -0.9335501453
 H      5.7059922761     6.9394320414    -0.5218925677
 F      6.6189408415     6.9583257708    -0.4378869491
          10
Energy: -34.43856645742801 Kcal/mole
 H      4.6085817398     4.4045467263    -2.6267777042
 F      3.8067271038     4.7657232092    -2.3670284193
 H      6.6324824816     3.9536589089    -2.1398586995
 F      6.1677170645     3.9047846285    -2.9288412163
 H      3.9485179361     6.0556458148    -1.2560697223
 F      4.2128203201     6.7048318588    -0.6648077415
 H      7.1764299537     5.2951488699    -0.6041158912
 F      7.2498364278     4.3819037481    -0.6426364978
 H      5.8765072895     6.9461511906    -0.6293789208
 F      6.7920661839     6.9125141133    -0.6682306640
          10
Energy: -34.41196722226414 Kcal/mole
 H      4.5696992342     4.5138745408    -2.6068114649
 F      3.7999394630     4.9292640067    -2.3314744239
 H      6.5993303228     3.9484396965    -2.2275251584
 F      6.0547697845     3.8824893894    -2.9623675749
 H      4.0088257748     6.0829064878    -1.1032877501
 F      4.3043670307     6.6651572853    -0.4594489699
 H      7.2276819075     5.2468699897    -0.6191051514
 F      7.2972603571     4.3421257545    -0.7513386885
 H      5.9508177247     6.9055871376    -0.5227436004
 F      6.8578636931     6.8545875797    -0.6474659175
          10
Energy: -34.43963010454527 Kcal/mole
 H      4.6154106733     4.5636495796    -2.3296950779
 F      3.8678000424     4.9068423539    -1.9244962820
 H      6.6890866678     4.1512133554    -2.1242533905
 F      6.1428310854     4.1479349639    -2.8607879048
 H      4.0795311434     6.0868582809    -0.7495633829
 F      4.3623445325     6.6594552495    -0.0915069274
 H      7.3906323375     5.2810498907    -0.4327707020
 F      7.4894483099     4.4031968533    -0.6787350252
 H      6.0225835802     6.8634268387    -0.0135111112
 F      6.9357100312     6.8319993609    -0.0916225579
          10
Energy: -34.431346214215154 Kcal/mole
 H      4.8539819464     4.8410240975    -2.5591563100
 F      4.0867709561     5.2033294933    -2.2112898176
 H      6.8389862979     4.2799833670    -2.1223241705
 F      6.3850689152     4.3447463342    -2.9164612920
 H      4.3862245342     6.5710896026    -1.2643013185
 F      4.7488769090     7.2344078320    -0.7452818760
 H      7.4464618377     5.2128873629    -0.3260289576
 F      7.4522911018     4.3322577894    -0.5816587173
 H      6.3560667333     7.0734712893    -0.3057286804
 F      7.2267894331     6.8408664376    -0.1365365915
          10
Energy: -34.484974337017775 Kcal/mole
 H      4.8895252473     5.0532995063    -2.6639195961
 F      4.1169462124     5.4294544672    -2.3437351489
 H      6.7445884969     4.1983515972    -2.0853779312
 F      6.4050303661     4.4149276996    -2.9092007688
 H      4.4883067720     6.7692281459    -1.4263802228
 F      4.8104868588     7.4358152853    -0.8853159223
 H      7.0487124489     4.8488088712    -0.0339421859
 F      7.1724975823     4.0464157843    -0.4602420510
 H      6.0145108865     6.8260042086     0.0943143404
 F      6.6860672095     6.3785416870     0.5298351743
          10
Energy: -34.40381178921726 Kcal/mole
 H      5.0206073383     5.2285725089    -2.8423037501
 F      4.2207508106     5.6486067276    -2.6851738988
 H      6.7272539577     4.3661651217    -1.9161572336
 F      6.5539742370     4.5932134217    -2.7875424572
 H      4.4248658285     6.8305711695    -1.5276496944
 F      4.5992256030     7.4009195291    -0.8310935819
 H      6.9350315945     5.0850459091     0.0026587690
 F      6.8615813526     4.2160309955    -0.2807263786
 H      6.0678646883     7.0758410456    -0.1291229764
 F      6.8604768994     6.7273124585     0.1728417680
          10
Energy: -34.41602195979709 Kcal/mole
 H      4.8591117741     5.1354078138    -2.5685132225
 F      4.0656753991     5.5511171238    -2.3722137362
 H      6.7429377487     4.3806617026    -1.8798681852
 F      6.4064580542     4.5287933362    -2.7199440355
 H      4.2569502585     6.8345356990    -1.3103839109
 F      4.5242506897     7.4253206382    -0.6619915643
 H      7.0417466224     5.1779768893     0.0912984051
 F      7.1608389463     4.3403795515    -0.2624482811
 H      5.9350293712     7.0918083003     0.1584303974
 F      6.7213416974     6.7898754541     0.5209748527
          10
Energy: -34.44443642462886 Kcal/mole
 H      4.8537766702     5.2778434783    -2.5933681603
 F      4.1030177403     5.7874435980    -2.4608625107
 H      6.5783947193     4.2676242574    -1.8907660294
 F      6.2498110455     4.4202650666    -2.7331570032
 H      4.2900522259     6.8948219116    -1.2153229346
 F      4.5429816800     7.4471378806    -0.5284002595
 H      7.0459980288     5.1682924799     0.0170040568
 F      6.9834613806     4.2975809295    -0.2637797812
 H      6.0673964106     7.1219467484     0.0680583584
 F      6.8979439365     6.8160542286     0.3078698959
          10
Energy: -34.4838364055006 Kcal/mole
 H      4.8995498020     5.4675873382    -2.8036253522
 F      4.2185735942     6.0742534518    -2.7081443022
 H      6.5210556339     4.3108554668    -1.9378315638
 F      6.2038395991     4.4572398102    -2.7856727112
 H      4.3458111231     7.0299833856    -1.3537710786
 F      4.5439252060     7.4753000532    -0.5770260266
 H      6.9961709816     5.2147250460    -0.0835103631
 F      6.9192433650     4.3343912217    -0.3284256537
 H      6.0930078769     7.1604128012    -0.0927204517
 F      6.9419805168     6.8539884570     0.0692628126
          10
Energy: -34.45897069743381 Kcal/mole
 H      4.7506604396     5.3650085517    -2.7851681633
 F      4.0994132771     6.0043597779    -2.6957470090
 H      6.4351974598     4.2306510573    -1.9078954062
 F      6.0628476417     4.3103030433    -2.7421017201
 H      4.2660369534     6.8782112683    -1.2685764871
 F      4.5039311354     7.3017828239    -0.4908345662
 H      7.1213222373     5.2628691068    -0.1657586830
 F      7.0387361734     4.3691118206    -0.3535523340
 H      6.1278061070     7.1322523071    -0.0694123176
 F      7.0024693983     6.8908427459     0.0631567232
          10
Energy: -34.44415157869108 Kcal/mole
 H      4.9637535049     5.3463198897    -2.8108299966
 F      4.2097742323     5.8449941357    -2.6567902196
 H      6.7358451798     4.4113529209    -1.8969061604
 F      6.4411422296     4.5331937410    -2.7566700732
 H      4.2985212356     6.8423792177    -1.3257680136
 F      4.4558734027     7.2888539164    -0.5404084533
 H      7.1081432825     5.2753365556    -0.0070150449
 F      7.1322169866     4.3965502580    -0.2678676853
 H      6.0358716245     7.1355399733    -0.0464405546
 F      6.9008417535     6.9226937064     0.1713027407
          10
Energy: -34.44403939383352 Kcal/mole
 H      5.1097387860     5.4474063924    -2.7361100194
 F      4.3300595944     5.9091721983    -2.5955337105
 H      6.8749864455     4.4777642429    -1.9603030602
 F      6.5669675090     4.6644367945    -2.8036100584
 H      4.3472473747     6.7623477908    -1.1589753923
 F      4.4303444642     7.1917157654    -0.3529809654
 H      7.1295483257     5.1933369835     0.0425866712
 F      7.2151914057     4.3639319702    -0.3390434987
 H      5.9704734864     6.9859800369     0.2332284915