          10
Energy: -34.53111848238271 Kcal/mole
 H      3.7917592175     4.7821827804    -1.9261597260
 F      3.2325747173     5.5069801739    -1.8725833031
 H      5.7438212800     3.8321093895    -1.4362699711
 F      4.9736127167     3.5941756990    -1.8733687334
 H      4.0234523378     6.8329629294    -1.2529928677
 F      4.5664557409     7.4549273870    -0.8539984844
 H      6.6795277108     5.0708572375     0.0499300292
 F      7.0112294647     4.4797502543    -0.5676907937
 H      5.3820040699     6.7164233832     0.3867523689
 F      5.8297035765     6.1640606843     0.9658461442
