          10
Energy: -34.52831788651204 Kcal/mole
 H      6.1428845007     4.4818299762    -2.4779698275
 F      5.4813895067     5.0677988121    -2.2331149802
 H      7.3675324860     2.8734098154    -1.8608508726
 F      7.3974518128     3.4028089577    -2.6090021823
 H      5.9378952753     5.8828617035    -0.8572333177
 F      6.2714984796     6.1987499318    -0.0636260287
 H      7.2231053343     2.8300778698     0.2750581518
 F      7.1780665117     2.1766890490    -0.3667701378
 H      6.9057881037     4.9597550909     0.8504567709
 F      7.2473419794     4.2029937612     1.2397410370
