          10
Energy: -34.48340590962738 Kcal/mole
 H      3.8965923566     4.8792329321    -2.0874770459
 F      3.3497119424     5.6139038513    -2.1329682874
 H      5.7746735041     3.9214388522    -1.4956499498
 F      5.0046214648     3.6670960468    -1.9236903616
 H      4.0184287521     6.8929242256    -1.2989794787
 F      4.4899302729     7.4899634717    -0.7870034495
 H      6.6753793726     5.0976769657     0.0191647645
 F      7.0277463903     4.5570392410    -0.6323237890
 H      5.2889000779     6.6591636814     0.4272728239
 F      5.7442596551     6.0845686890     0.9780697467
          10
Energy: -34.498822892248796 Kcal/mole
 H      3.8189674274     4.8681664808    -2.0756142859
 F      3.2720910598     5.6042361218    -2.0715250045
 H      5.7025172824     3.8791815692    -1.5598459423
 F      4.9245990784     3.6448279522    -1.9850642980
 H      4.0125905893     6.8979673361    -1.3049084451
 F      4.5242420392     7.4879829315    -0.8243011304
 H      6.6111714439     5.0459020966    -0.0310450283
 F      6.9723584807     4.5042926551    -0.6768717367
 H      5.2853557050     6.6537075340     0.4037314491
 F      5.7168959640     6.0541881419     0.9470899895
          10
Energy: -34.48716347396572 Kcal/mole
 H      3.8499507792     4.8715431762    -2.1514436995
 F      3.3121107210     5.6137413042    -2.1238935532
 H      5.6720176283     3.8074862788    -1.5360135906
 F      4.9193121158     3.6150778804    -2.0231505526
 H      4.0892857437     6.8841494062    -1.3663062866
 F      4.6037338645     7.4768987305    -0.8920907559
 H      6.6084462565     5.0164286677     0.0010147914
 F      6.9374863121     4.4345376871    -0.6266989399
 H      5.3611396616     6.6827124510     0.3771092538
 F      5.7987568188     6.1045827611     0.9384881681
          10
Energy: -34.50210294126211 Kcal/mole
 H      3.8268801743     4.9075727677    -2.1202833470
 F      3.2970233923     5.6552591643    -2.0870291302
 H      5.7321726391     3.8475910199    -1.6044251842
 F      4.9420829547     3.6583383215    -2.0296671231
 H      4.0808099759     6.9048015925    -1.3355966877
 F      4.6087000121     7.4892838362    -0.8659142241
 H      6.6827072920     5.0235001246    -0.0715683042
 F      7.0235453626     4.4731592979    -0.7210630186
 H      5.3835429251     6.6395894568     0.3474183320
 F      5.8112209396     6.0455301502     0.8997534261
          10
Energy: -34.49694018674779 Kcal/mole
 H      3.7823533498     4.8813822008    -2.0334089029
 F      3.2330775937     5.6058613601    -1.9137632112
 H      5.7406599294     3.9423279134    -1.6597116664
 F      4.9638901786     3.6897833907    -2.0765317934
 H      4.0370739291     6.8977196423    -1.1804103183
 F      4.5949176153     7.4821332921    -0.7466360594
 H      6.6951895271     5.0634841112    -0.1042955056
 F      7.0125907524     4.5856971765    -0.8197429930
 H      5.4151440569     6.6369871747     0.4330713220
 F      5.8680998006     6.0350124613     0.9558968556
          10
Energy: -34.50583238074219 Kcal/mole
 H      3.7756399820     4.8837786060    -2.0719715349
 F      3.2172061577     5.5800395145    -1.8615875738
 H      5.7644889685     3.9326742275    -1.7539890756
 F      5.0061106567     3.7380761222    -2.2313599101
 H      4.0248978804     6.8717155532    -1.1609580088
 F      4.5707577416     7.4697976839    -0.7305816888
 H      6.7050511016     5.0153550471    -0.0992605755
 F      7.0165523687     4.4859176182    -0.7801070849
 H      5.4208871808     6.6316676623     0.4234512007
 F      5.9025711137     6.0426958021     0.9352927159
          10
Energy: -34.48293440140014 Kcal/mole
 H      3.7459467890     4.9082369572    -2.0714598453
 F      3.1952328558     5.6297630176    -1.9410631125
 H      5.7144429413     3.9030792395    -1.7229018903
 F      4.9358689315     3.7226888476    -2.1725359836
 H      4.0163302076     6.8790778955    -1.2197338161
 F      4.5644094455     7.4437122370    -0.7488981659
 H      6.6648674266     4.9705759346    -0.1359907415
 F      7.0066731397     4.4590583882    -0.8159963695
 H      5.3952319080     6.5564007124     0.4233093823
 F      5.8349977744     5.9212842113     0.9173964322
          10
Energy: -34.49612138759332 Kcal/mole
 H      3.7529481512     4.9142210647    -2.0554836314
 F      3.1774289346     5.5714187362    -1.7766326823
 H      5.7485773798     3.9950035366    -1.8219932032
 F      5.0211619898     3.8515783980    -2.3616088814
 H      3.9565056234     6.8827175959    -1.1181352913
 F      4.5051944208     7.4938920638    -0.7103419940
 H      6.6071832978     4.9745276276    -0.0890828123
 F      6.9358794099     4.4257739338    -0.7461347504
 H      5.3830898988     6.6609101835     0.4339024288
 F      5.8412183033     6.0367748547     0.9252907237
          10
Energy: -34.4635651312949 Kcal/mole
 H      3.7979973509     4.8530642516    -1.9879576651
 F      3.2049902264     5.4878070619    -1.6941326917
 H      5.7620536548     3.9629148572    -1.8886908064
 F      5.0169940478     3.7970097735    -2.3968745184
 H      3.9517065428     6.8741576103    -1.0944964772
 F      4.5074283259     7.4998393639    -0.7195502905
 H      6.6660677357     5.0026676817    -0.1468168120
 F      6.9814718510     4.4760543483    -0.8280565944
 H      5.4255147015     6.6705857000     0.3729320922
 F      5.8852331861     6.0656255584     0.8863238938
          10
Energy: -34.50782644730381 Kcal/mole
 H      3.7890455031     4.9325885583    -2.0742391347
 F      3.1808886299     5.5568247239    -1.7889963836
 H      5.7889727856     4.0490031271    -1.8936882380
 F      5.0589112224     3.9267241075    -2.4349339819
 H      4.0136820379     6.8762336240    -1.2003642573
 F      4.5846604564     7.4870176741    -0.8237802830
 H      6.7115338352     5.0378825085    -0.1610379764
 F      6.9949112723     4.4778051463    -0.8295434561
 H      5.4667799588     6.7006798805     0.3593226418
 F      5.9391631684     6.1097024551     0.8774816771
          10
Energy: -34.50555720297214 Kcal/mole
 H      3.7861645355     4.9367496160    -2.0176668379
 F      3.1736405059     5.5581670493    -1.7356319346
 H      5.7628891109     4.0047448651    -1.8267186634
 F      5.0311026687     3.8934978609    -2.3680149844
 H      3.9670966345     6.8672943135    -1.1062792829
 F      4.5345598553     7.4934037686    -0.7501031422
 H      6.7068835465     4.9996768017    -0.1365904236
 F      6.9801908758     4.3835192185    -0.7583153920
 H      5.4889562810     6.7090605515     0.3449899004
 F      5.9958091622     6.1355794965     0.8500727019
          10
Energy: -34.50762176214633 Kcal/mole
 H      3.7666866536     4.9350856426    -2.0780817366
 F      3.1814352409     5.5849318634    -1.8022744247
 H      5.7851789241     4.0253516475    -1.8557007336
 F      5.0594153981     3.9095059117    -2.4040948161
 H      3.9685035744     6.8834862478    -1.1260088460
 F      4.5254081239     7.4947461125    -0.7296407084
 H      6.6937844563     4.9723322517    -0.1234531774
 F      6.9926872115     4.3997171923    -0.7743434422
 H      5.4236363406     6.6505607327     0.3677134555
 F      5.9022260008     6.0565312722     0.8766043448
          10
Energy: -34.478868591063076 Kcal/mole
 H      3.7681472875     4.9262371766    -2.0813607293
 F      3.1681550379     5.5646302674    -1.8105239479
 H      5.7424690731     3.9772986714    -1.8412661689
 F      5.0154040270     3.8407265599    -2.3831272924
 H      4.0031396877     6.8780896026    -1.2023957738
 F      4.5994671187     7.4598960019    -0.8192718921
 H      6.6756357254     4.9702077043    -0.1075634202
 F      6.9584666294     4.4203896880    -0.7847604586
 H      5.4765978872     6.6506229909     0.3767081921
 F      5.9501688155     6.0611074482     0.8954480121
          10
Energy: -34.48738093618667 Kcal/mole
 H      3.7485786766     4.8645003661    -1.9967404224
 F      3.1775140520     5.5255985101    -1.7179511856
 H      5.7603359567     3.9320707982    -1.7754949250
 F      5.0008783788     3.7542727956    -2.2576785598
 H      3.9973679293     6.8428182615    -1.1400935765
 F      4.5725363404     7.4666551664    -0.7923899457
 H      6.7585880133     5.0194977435    -0.1375175552
 F      7.0301892882     4.4518906622    -0.8045587449
 H      5.5088011207     6.6816959589     0.3434195948
 F      5.9979977011     6.1124986600     0.8702878332
          10
Energy: -34.49377074501885 Kcal/mole
 H      3.7007236749     4.7849156652    -1.9173743878
 F      3.1054369774     5.4289934674    -1.6496309799
 H      5.7800755834     3.9468834204    -1.7763321643
 F      5.0051531917     3.7747963289    -2.2354294521
 H      3.9561315169     6.7689494707    -1.1548689092
 F      4.5268995964     7.4092809846    -0.8306955732
 H      6.7275998242     5.0299551674    -0.1453143184
 F      7.0445539282     4.4894249783    -0.8148337063
 H      5.4347891381     6.6397444891     0.3248735342
 F      5.9262799852     6.0752108097     0.8546163699
          10
Energy: -34.48871917526998 Kcal/mole
 H      3.6867472706     4.8312255413    -2.0374232470
 F      3.0935427805     5.4817612531    -1.7809067356
 H      5.7449668951     3.9227375982    -1.7937877116
 F      4.9889257181     3.7860142304    -2.2943848144
 H      3.9078126151     6.7889102261    -1.1877664886
 F      4.4760953466     7.4095902057    -0.8234862392
 H      6.7084555218     4.9770828948    -0.1834010364
 F      6.9949454570     4.3701828610    -0.8082889191
 H      5.4627360144     6.6612476561     0.2943240663
 F      6.0087624704     6.1167331808     0.7905579783
          10
Energy: -34.49666810754212 Kcal/mole
 H      3.7241962427     4.7669909361    -2.0249648568
 F      3.1613183120     5.4822780437    -1.9135117784
 H      5.7021222097     3.7715066650    -1.7099290031
 F      4.9039825852     3.5692622432    -2.1136112217
 H      3.9721189842     6.7988977026    -1.2801740166
 F      4.5326032376     7.4023930915    -0.8770118690
 H      6.7142191455     4.9745967589    -0.2138937675
 F      7.0033870535     4.3836970585    -0.8527274432
 H      5.4333689478     6.6333148040     0.2696506272
 F      5.9176684038     6.0544694396     0.7904971316
          10
Energy: -34.51009779636263 Kcal/mole
 H      3.7567426786     4.7570076865    -2.1087286191
 F      3.1718061988     5.4395632586    -1.9274658113
 H      5.7563247627     3.8347757530    -1.7915827188
 F      4.9899638831     3.6257312321    -2.2497097651
 H      3.9280660985     6.7535853749    -1.2492958566
 F      4.4612062253     7.3748850176    -0.8362131054
 H      6.7018325001     5.0156338608    -0.2417096763
 F      7.0178865754     4.4775422833    -0.9136146367
 H      5.3874591413     6.5857210979     0.2858172721
 F      5.8968331925     6.0136480850     0.7899596566
          10
Energy: -34.477326408146354 Kcal/mole
 H      3.7471577117     4.7334867739    -2.1203345777
 F      3.1786548732     5.4460552242    -2.0206364018
 H      5.7481712099     3.8467853754    -1.7776415588
 F      4.9680449744     3.5916522045    -2.1865414509
 H      3.9585283052     6.7309437808    -1.2944348506
 F      4.5021117059     7.3118297281    -0.8383892361
 H      6.7398651058     5.0280867395    -0.2625199375
 F      7.0417651397     4.5138005848    -0.9591224932
 H      5.4354688847     6.5757758031     0.3115535050
 F      5.9527076425     6.0234446596     0.8295142906
          10
Energy: -34.49295824335155 Kcal/mole
 H      3.7587850859     4.7346328066    -2.1886454271
 F      3.1906662062     5.4464856734    -2.0818960263
 H      5.7384782054     3.8204658040    -1.7973063792
 F      4.9584778807     3.5838961977    -2.2174531569
 H      3.9058401885     6.7120421273    -1.2862174508
 F      4.4069072365     7.3085028363    -0.8024246893
 H      6.7113699085     5.0154776770    -0.2812237694
 F      7.0275337188     4.4839354206    -0.9582704995
 H      5.3876361291     6.5599678280     0.2998994934
 F      5.9437043828     6.0163482479     0.7858571556
          10
Energy: -34.492226420525355 Kcal/mole
 H      3.8606564089     4.7794448449    -2.2618943241
 F      3.3236436925     5.5224508682    -2.2407190585
 H      5.7734421971     3.8636815301    -1.8373181042
 F      4.9767354261     3.5514608738    -2.1669627354
 H      3.9736454064     6.7664286013    -1.3175395663
 F      4.4301285758     7.3330279553    -0.7594380628
 H      6.7025628888     5.0190917710    -0.3515905620
 F      7.0548131641     4.5950490736    -1.0843910358
 H      5.3271324510     6.4435573217     0.3221526887
 F      5.8081313975     5.8143134526     0.7843011136
          10
Energy: -34.498810847155994 Kcal/mole
 H      3.8260421292     4.7550567781    -2.2830185157
 F      3.2929207208     5.4958338062    -2.1940243677
 H      5.7469940278     3.8223209469    -1.8802053344
 F      4.9603538773     3.5374735219    -2.2556360444
 H      3.9942455994     6.7352186599    -1.2886555026
 F      4.4832782071     7.3095342694    -0.7672174053
 H      6.7249229751     4.9961150386    -0.3392399696
 F      7.0319129624     4.5333290757    -1.0689490213
 H      5.3837645061     6.4662181869     0.3291973629
 F      5.9099692724     5.8840768543     0.8036539076
          10
Energy: -34.474332138037 Kcal/mole
 H      3.7962465710     4.7221461004    -2.2688835232
 F      3.2577237513     5.4571601290    -2.1657498699
 H      5.7261491059     3.7556143645    -1.8897748667
 F      4.9385180455     3.4820087811    -2.2714374106
 H      3.9111326411     6.7143653807    -1.2969108418
 F      4.3796831923     7.3096907799    -0.7802513311
 H      6.7556456973     5.0314842473    -0.4248410422
 F      7.0227920075     4.5225948395    -1.1393712513
 H      5.3951844843     6.5136929269     0.2978684867
 F      5.9782089153     5.9539466154     0.7310607991
          10
Energy: -34.51961296808622 Kcal/mole
 H      3.8179374912     4.7462957342    -2.2888449291
 F      3.2739678467     5.4835942915    -2.2517388223
 H      5.7497709271     3.8041799895    -1.9017838307
 F      4.9410064609     3.5195302846    -2.2269969666
 H      3.8883993109     6.7017540324    -1.2930639227
 F      4.3287214246     7.2761578155    -0.7299780234
 H      6.7225956734     4.9967077085    -0.4331443447
 F      7.0436856723     4.5351162174    -1.1575223593
 H      5.3445391506     6.4376295442     0.2870903746
 F      5.9143471838     5.8651151311     0.7211814389
          10
Energy: -34.51930897474193 Kcal/mole
 H      3.7951779027     4.7043628875    -2.2701940587
 F      3.2624396320     5.4488554389    -2.2171867412
 H      5.7206441683     3.7467537236    -1.8794677760
 F      4.9185372785     3.4729318082    -2.2295179094
 H      3.9154686608     6.6945371519    -1.3392984831
 F      4.3704748171     7.2839789768    -0.8041193235
 H      6.7315684875     4.9425995654    -0.4233058935
 F      7.0285235896     4.4573605808    -1.1425066966
 H      5.3520001282     6.4434158518     0.2514204182
 F      5.9106463873     5.8686795465     0.6969330854
          10
Energy: -34.5019027735832 Kcal/mole
 H      3.7643451255     4.6919119597    -2.2642904541
 F      3.2238766622     5.4213022526    -2.1347812230
 H      5.7286434169     3.7882139150    -1.9239439589
 F      4.9333777089     3.5077715722    -2.2842126723
 H      3.9535078479     6.7045938848    -1.3556287464
 F      4.4664598245     7.3120792047    -0.8987580254
 H      6.7588259828     4.9754074125    -0.4865017684
 F      7.0467324088     4.4800850482    -1.2025008224
 H      5.4525502279     6.5058099363     0.1882852507
 F      5.9942788927     5.9207424537     0.6411815904
          10
Energy: -34.509272380224644 Kcal/mole
 H      3.7576234432     4.6983888362    -2.2761344049
 F      3.1845925608     5.3888967579    -2.0871280087
 H      5.7601436147     3.8358342378    -2.0660325385
 F      4.9776436832     3.5766702427    -2.4677997360
 H      3.9319158585     6.6808480778    -1.3709914433
 F      4.4712823888     7.2997532057    -0.9624217570
 H      6.7535363795     4.9939370566    -0.5049205751
 F      7.0388815142     4.4953430283    -1.2196730840
 H      5.4473640264     6.5189523076     0.1422531688
 F      5.9785805215     5.9502113746     0.6272601651
          10
Energy: -34.50893686942959 Kcal/mole
 H      3.7667144641     4.7308311120    -2.3585111335
 F      3.2036399962     5.4376391505    -2.2027595998
 H      5.7762583537     3.8198768471    -2.0345791840
 F      4.9881597749     3.5820038400    -2.4385668850
 H      3.9715455971     6.7083415891    -1.4545940224
 F      4.4936128195     7.3085993685    -0.9984959917
 H      6.7402490957     4.9129387412    -0.4701880716
 F      7.0629992461     4.4357205992    -1.1836193474
 H      5.4110737997     6.4616374674     0.1030963844
 F      5.9053973471     5.8690442271     0.5984411956
          10
Energy: -34.492604534336294 Kcal/mole
 H      3.7737535280     4.7196963225    -2.3226251324
 F      3.2131036649     5.4358857518    -2.2058628422
 H      5.7686262572     3.7945875211    -2.0043355154
 F      4.9742086988     3.5367442282    -2.3828940700
 H      3.9889584247     6.6984897502    -1.4430191696
 F      4.5137100721     7.2997271628    -0.9913132009
 H      6.7647437439     4.9714109748    -0.4869472324
 F      7.0501867855     4.4459598422    -1.1821539479
 H      5.4463151253     6.5132459264     0.1520548645
 F      5.9811368503     5.9314084331     0.6171568466
          10
Energy: -34.49947875399866 Kcal/mole
 H      3.7926727740     4.7487305475    -2.3808402056
 F      3.2324937160     5.4659227884    -2.2680407702
 H      5.8008688707     3.8123671891    -2.0334151699
 F      5.0100882967     3.5830297665    -2.4370975084
 H      3.9957037264     6.7394281302    -1.4780162671
 F      4.5298915122     7.3112040271    -0.9998899937
 H      6.7664610780     4.9305617984    -0.4678059742
 F      7.0914377159     4.4309213407    -1.1646837237
 H      5.4291972874     6.4812127203     0.0995679993
 F      5.9243419210     5.8941169036     0.6006062151
          10
Energy: -34.50469296329055 Kcal/mole
 H      3.8350071155     4.7825591745    -2.4366632202
 F      3.2841185126     5.5103828877    -2.3490082732
 H      5.7879014630     3.8081447641    -2.0209167946
 F      4.9928412220     3.5782331987    -2.4157697866
 H      3.9814916583     6.7426934920    -1.4841308310
 F      4.4575426582     7.3288030542    -0.9638039851
 H      6.7350019474     4.9546780373    -0.5001882584
 F      7.0736175963     4.4626242817    -1.1959695056
 H      5.3887253557     6.4869563107     0.1206831685
 F      5.9265991850     5.9108275777     0.5893583511
          10
Energy: -34.51127742975592 Kcal/mole
 H      3.7804401227     4.7298381801    -2.3048769988
 F      3.2153331846     5.4447480489    -2.2026662952
 H      5.7768240041     3.8019082052    -2.0120659829
 F      4.9690205348     3.5540929049    -2.3683385357
 H      3.9374328613     6.7461831230    -1.4067909646
 F      4.4530550025     7.3479975082    -0.9454426652
 H      6.7893352165     4.9793365571    -0.5449349295
 F      7.0937879591     4.4921701048    -1.2596840990
 H      5.4349332067     6.4951281602     0.0898619931
 F      5.9569128254     5.9030284379     0.5565998173
          10
Energy: -34.516676303239734 Kcal/mole
 H      3.8003452144     4.7364842791    -2.2774201218
 F      3.2383130878     5.4530926870    -2.1702693940
 H      5.7616971534     3.7868685218    -1.9698708152
 F      4.9515912578     3.5248694634    -2.3104202704
 H      3.9720125086     6.7626416977    -1.4281033155
 F      4.4894664663     7.3695398231    -0.9755493772
 H      6.7947257739     4.9959986877    -0.5542858703
 F      7.0935020025     4.4912862173    -1.2591880532
 H      5.4707321695     6.5448533590     0.1028778359
 F      6.0003356902     5.9503986078     0.5578862531
          10
Energy: -34.51432171423119 Kcal/mole
 H      3.8126504923     4.7613059843    -2.3327574007
 F      3.2559035120     5.4796443144    -2.2106433414
 H      5.7705289087     3.8094825453    -2.0063204969
 F      4.9702102998     3.5633705652    -2.3802296002
 H      3.9955233269     6.7632015357    -1.4552808836
 F      4.5026660261     7.3586510689    -0.9766002634
 H      6.8105392484     5.0125128737    -0.5490933756
 F      7.0869901569     4.4996270786    -1.2571979275
 H      5.4799391491     6.5330434162     0.0801477372
 F      6.0231880767     5.9708593453     0.5594374962
          10
Energy: -34.507395162956016 Kcal/mole
 H      3.8014757385     4.7641181702    -2.3051332790
 F      3.2458912919     5.4846762638    -2.1910676993
 H      5.7738429679     3.8596825625    -2.0170244735
 F      4.9789526892     3.5777531643    -2.3769609391
 H      3.9635490766     6.7810222749    -1.4122242456
 F      4.4654268824     7.3813346418    -0.9340686953
 H      6.8109616726     5.0414361137    -0.5659013700
 F      7.0985649396     4.5425352069    -1.2795338007
 H      5.4537369848     6.5632060512     0.1308337525
 F      6.0092211295     5.9728827771     0.5596050167
          10
Energy: -34.50328286128459 Kcal/mole
 H      3.8107896573     4.7511634235    -2.2667172889
 F      3.2472645335     5.4662463737    -2.1572421352
 H      5.7701863976     3.8598307988    -2.0052594339
 F      4.9748473141     3.5616641372    -2.3508334263
 H      3.9416475038     6.7442921888    -1.3543516719
 F      4.4270298027     7.3591453678    -0.8776456911
 H      6.8094822030     5.0395894387    -0.5671876025
 F      7.0932755253     4.5391094132    -1.2812394874
 H      5.4580066494     6.5380389655     0.1386779960
 F      6.0261356982     5.9602042889     0.5678929426
          10
Energy: -34.50610982741793 Kcal/mole
 H      3.8530996314     4.8035301022    -2.4056750402
 F      3.2976804930     5.5282578012    -2.3210089733
 H      5.7868764695     3.8501988848    -2.0445947845
 F      4.9872399106     3.5908262348    -2.4109227825
 H      3.9802157071     6.7446130219    -1.4265865676
 F      4.4428051801     7.3247011306    -0.8877008974
 H      6.7913748071     5.0111514542    -0.5680832627
 F      7.1026610112     4.5315894839    -1.2850283203
 H      5.4435889666     6.4788346581     0.1411291332
 F      6.0003108622     5.8898899954     0.5701908016
          10
Energy: -34.514319109602184 Kcal/mole
 H      3.8590996287     4.7947099069    -2.3896486043
 F      3.3078193765     5.5254913900    -2.3354498269
 H      5.8181903193     3.8348662593    -2.0021981993
 F      4.9992194962     3.5720073034    -2.3201305195
 H      3.9613409947     6.7584425030    -1.4183191918
 F      4.4387226887     7.3220915986    -0.8749082835
 H      6.8296022270     5.0138865603    -0.5542725256
 F      7.1447130652     4.5507325390    -1.2802770106
 H      5.4320306204     6.4540141256     0.1504579308
 F      5.9842215355     5.8736790342     0.5967598185
          10
Energy: -34.51951995374688 Kcal/mole
 H      3.8892254504     4.7956078239    -2.4169988208
 F      3.3598860237     5.5430934280    -2.3727942609
 H      5.8155504692     3.8286849999    -1.9838957955
 F      5.0083605730     3.5520860324    -2.3197923313
 H      3.9834370553     6.7499183279    -1.3974205849
 F      4.4293554737     7.3231869186    -0.8375912475
 H      6.8400117087     5.0114971009    -0.5589796858
 F      7.1440942538     4.5317788058    -1.2789054898
 H      5.4441124047     6.4803370997     0.1549224261
 F      6.0161972805     5.9009019599     0.5766602755
          10
Energy: -34.50784082311321 Kcal/mole
 H      3.8811433803     4.8084312868    -2.4227808630
 F      3.3382377055     5.5438669768    -2.3501394550
 H      5.7947705301     3.8031251811    -2.0088469493
 F      4.9863969797     3.5482711026    -2.3588049493
 H      3.9984894570     6.7669303278    -1.4128245760
 F      4.4724940378     7.3321150545    -0.8680540903
 H      6.8057705320     4.9878812747    -0.5702885279
 F      7.1083278388     4.5134697109    -1.2943615520
 H      5.4820364103     6.4693022867     0.1296432478
 F      6.0282795021     5.8811997621     0.5730876132
          10
Energy: -34.52121563407317 Kcal/mole
 H      3.8686951203     4.8006455002    -2.4185564697
 F      3.3271598005     5.5368855595    -2.3438632809
 H      5.8068372220     3.8234985796    -2.0535169797
 F      5.0014065275     3.5676384162    -2.4094748045
 H      4.0235451761     6.7410098185    -1.4191313175
 F      4.4995110824     7.3103559548    -0.8804380531
 H      6.8139550238     4.9876792513    -0.5699279199
 F      7.1131903764     4.5443095111    -1.3147570797
 H      5.4685708792     6.4310092214     0.1606012931
 F      5.9985182298     5.8257897214     0.6007764428
          10
Energy: -34.495186050894034 Kcal/mole
 H      3.8753232364     4.7793757701    -2.3931540445
 F      3.3350196558     5.5174607382    -2.3284113171
 H      5.8103926115     3.8471435076    -2.0184672017
 F      5.0098982348     3.5542444567    -2.3565617135
 H      4.0217392987     6.7689577455    -1.4059759026
 F      4.5079498394     7.3478772427    -0.8869956275
 H      6.8390427250     5.0002791041    -0.5680991024
 F      7.1290347333     4.5470678590    -1.3106576539
 H      5.4743495738     6.4672180206     0.1409083777
 F      6.0110138497     5.8650784878     0.5771519310
          10
Energy: -34.508959464728804 Kcal/mole
 H      3.9339886086     4.8735779773    -2.5077492610
 F      3.3909835506     5.6040924774    -2.3964700083
 H      5.8471125598     3.8679856244    -2.1403425179
 F      5.0569657937     3.6376688620    -2.5447077945
 H      4.0755783524     6.7792210342    -1.4604024421
 F      4.5409881170     7.3365850934    -0.9003773923
 H      6.8157131528     4.9799816929    -0.5670663529
 F      7.1297809664     4.5172179743    -1.2937713474
 H      5.4845413386     6.4595309956     0.1622073322
 F      6.0079521583     5.8520857648     0.6071122719
          10
Energy: -34.51865067767022 Kcal/mole
 H      3.8931004707     4.8550530016    -2.4963671365
 F      3.3550020661     5.5931867960    -2.4157593913
 H      5.8354951814     3.8621843874    -2.0889660600
 F      5.0371944942     3.6180514969    -2.4684448401
 H      4.0337378899     6.7667464144    -1.4417228618
 F      4.5194973774     7.3111810209    -0.8862791836
 H      6.8367628166     4.9630274045    -0.5515505359
 F      7.1430660007     4.5095584127    -1.2873720039
 H      5.4768173181     6.4422397674     0.1686661999
 F      6.0084522988     5.8353524329     0.6044884234
          10
Energy: -34.51623687833714 Kcal/mole
 H      3.8943719566     4.8282210223    -2.4476695283
 F      3.3428184202     5.5526010122    -2.3383474046
 H      5.8246644152     3.8826619176    -2.1017299430
 F      5.0296030394     3.6132653082    -2.4707717773
 H      4.0327802474     6.7585747486    -1.4161715528
 F      4.5231637426     7.3133382386    -0.8751997442
 H      6.8252171828     5.0150028823    -0.5876049316
 F      7.1162036334     4.5950438756    -1.3490839650
 H      5.4948681212     6.4379419890     0.1592380666
 F      6.0384229400     5.8444712191     0.5988169608
          10
Energy: -34.51644939905131 Kcal/mole
 H      3.9084696796     4.8284225491    -2.4467085977
 F      3.3478754990     5.5446108372    -2.3296722754
 H      5.8436572334     3.8767756654    -2.1008039548
 F      5.0489180800     3.6179356176    -2.4780048398
 H      3.9724068380     6.7707533259    -1.3623358540
 F      4.4408584660     7.3269864016    -0.8037243273
 H      6.8350374065     5.0350202281    -0.5855299149
 F      7.1352054600     4.5916849038    -1.3300041790
 H      5.4617313152     6.4469788182     0.1869668423
 F      6.0274379573     5.8591964180     0.6057470292
          10
Energy: -34.51891905477066 Kcal/mole
 H      3.9054596211     4.8298432540    -2.4323622500
 F      3.3510154961     5.5516619072    -2.3207444015
 H      5.8438080480     3.8925133918    -2.1124564271
 F      5.0489100797     3.6171007675    -2.4773867031
 H      3.9833162766     6.7766014159    -1.3555477058
 F      4.4302501280     7.3331429334    -0.7798736038
 H      6.8271800150     5.0248803480    -0.5880553667
 F      7.1346911830     4.5886615503    -1.3337356213
 H      5.4337696921     6.4521596924     0.1894662820
 F      5.9969734571     5.8531476863     0.5955144757
          10
Energy: -34.51986462258324 Kcal/mole
 H      3.9128752507     4.8312048802    -2.4302635333
 F      3.3631726744     5.5565577583    -2.3181061450
 H      5.8454515639     3.8862181139    -2.1210759121
 F      5.0461454694     3.6099763587    -2.4756027234
 H      3.9988131833     6.7699548636    -1.3737726428
 F      4.4568357625     7.3420814882    -0.8226143694
 H      6.8139456747     5.0310379511    -0.5805449538
 F      7.1259822677     4.6106593759    -1.3334088314
 H      5.4643973990     6.4655507636     0.1863916070
 F      6.0080111330     5.8576684688     0.6057389855
          10
Energy: -34.51487445116311 Kcal/mole
 H      3.9057432133     4.8512902123    -2.4489474918
 F      3.3410799118     5.5645669557    -2.3337058188
 H      5.8622578149     3.9213548037    -2.1555243034
 F      5.0714670880     3.6642598647    -2.5421005813
 H      4.0092765393     6.7816094388    -1.3859601657
 F      4.4714104431     7.3398799190    -0.8241280503
 H      6.8419204164     5.0212742665    -0.5747827970
 F      7.1405044350     4.5910658488    -1.3275492290
 H      5.4669948219     6.4458214206     0.1801952832
 F      6.0123144107     5.8403077809     0.6007529822
          10
Energy: -34.52512069838974 Kcal/mole
 H      3.8989570750     4.8535287429    -2.4598111806
 F      3.3387954186     5.5659713688    -2.3200491561
 H      5.8626656567     3.9252952486    -2.1590172046
 F      5.0714454529     3.6640508332    -2.5419152910
 H      4.0011395645     6.7723649581    -1.3696910468
 F      4.4718420908     7.3403703173    -0.8249910895
 H      6.8321891331     5.0291784936    -0.5924747425
 F      7.1472761299     4.5948544670    -1.3360954956
 H      5.4729104225     6.4522688661     0.1819072461