          10
Energy: -34.52376255445253 Kcal/mole
 H      4.9625101343     2.2112675836     0.0404892525
 F      5.8650566257     2.3261656786    -0.0739540019
 H      2.9036888542     2.9831153120    -0.2236615945
 F      3.2933194020     2.2175339471     0.0972156563
 H      6.1572512287     3.2507098437    -1.4174048813
 F      6.1676688607     3.8272037883    -2.1304513067
 H      3.1238366024     4.9717153921    -1.1142399313
 F      2.4167460414     4.4358279592    -0.8824283747
 H      5.1869012207     5.1197318110    -1.7756098811
 F      4.5613426764     5.7259679380    -1.4891779240
