          10
Energy: -34.329388173516776 Kcal/mole
 H      5.1699751534     5.6775471895    -2.9722818393
 F      4.3269701604     6.0067420457    -2.8244226886
 H      6.9654259100     4.8728414042    -2.1102880999
 F      6.7862850259     5.1926743972    -2.9508262610
 H      4.1639625554     6.8760424929    -1.3840783232
 F      4.2311512783     7.3753364943    -0.6178667496
 H      6.8986549146     5.3519062546    -0.0894615228
 F      7.0340393451     4.5403468370    -0.4943459109
 H      5.7087438221     7.1204871432     0.1260845207
 F      6.5133164170     6.8709404934     0.4884081455
          10
Energy: -34.361781945848065 Kcal/mole
 H      5.0471365510     5.4611393712    -3.0618916013
 F      4.2819711756     5.9588961399    -2.9744321958
 H      6.7859237426     4.4770464026    -2.1414868725
 F      6.5125155618     4.5855125973    -3.0100328134
 H      4.1512676878     6.8668438801    -1.6023422790
 F      4.2097811065     7.3010405198    -0.7967751137
 H      7.0140363693     5.4010980010    -0.2173481357
 F      7.1718694006     4.5497992173    -0.5194542679
 H      5.6892572135     7.1461566503    -0.0782450193
 F      6.5422697528     6.9619062193     0.2033759786
          10
Energy: -34.40975838601281 Kcal/mole
 H      4.8482283902     5.1419776458    -2.9713452293
 F      4.1162471873     5.6943101589    -2.9667285819
 H      6.5087965843     4.1845085515    -1.9231131188
 F      6.1762430786     4.1755464655    -2.7776403839
 H      4.1917176372     6.8051581825    -1.7517967735
 F      4.3691543420     7.3844205795    -1.0634216641
 H      6.9389654300     5.3452518564    -0.1365989721
 F      6.9439399281     4.4452863577    -0.3124578799
 H      5.8865279178     7.2307491009    -0.3497433861
 F      6.7042224428     6.9829398603    -0.0167940747
          10
Energy: -34.419564185320496 Kcal/mole
 H      4.7798869007     4.9732339380    -2.8440593982
 F      4.2031306100     5.6824639728    -2.9164053651
 H      6.3000392172     3.8743563447    -1.7446473717
 F      5.8870491852     3.7744431967    -2.5572638842
 H      4.1192316931     6.6639449244    -1.5776951137
 F      4.2184774984     7.1213163003    -0.7891200097
 H      7.0246621970     5.2868996653    -0.2438848361
 F      7.0306661870     4.3726536663    -0.3146464456
 H      5.8470883420     7.1196513003    -0.4755823826
 F      6.7425648441     6.9609765818    -0.3579678939
          10
Energy: -34.44116301135071 Kcal/mole
 H      4.6446753754     4.6322249593    -2.6771370076
 F      3.8680674500     5.0992429466    -2.5369110129
 H      6.5121039136     4.0138067591    -1.8346842293
 F      6.1520314171     3.9300225762    -2.6738606160
 H      4.0036788461     6.4118341486    -1.4911978296
 F      4.1798242070     7.0818199344    -0.8903810033
 H      6.9277891204     5.3555292895    -0.1491854711
 F      6.9199489739     4.4455954441    -0.2625341773
 H      5.7498551564     7.1092290385    -0.3339088359
 F      6.6312719332     6.9703863758    -0.1224468287
          10
Energy: -34.39567114144299 Kcal/mole
 H      4.5931737903     4.7288293742    -2.6408130348
 F      3.7979793133     5.1336890341    -2.4295231873
 H      6.5003431943     4.1458801350    -2.0235773141
 F      6.1345861028     4.1492238717    -2.8644694412
 H      4.0367434971     6.6111736988    -1.7034505841
 F      4.3156812254     7.3468377490    -1.2324079651
 H      7.0528033596     5.3094286175    -0.4221017063
 F      7.0302877777     4.3947607314    -0.4834589117
 H      5.9024259140     7.1969865960    -0.7742331089
 F      6.7601935203     6.9647562020    -0.5479748989
          10
Energy: -34.330590394909166 Kcal/mole
 H      4.5899767326     4.6140957639    -2.4532882172
 F      3.8279497991     4.9761715940    -2.0939763111
 H      6.5944570166     4.1763074596    -2.0939567416
 F      6.1021287853     4.1166556012    -2.8652825926
 H      4.0679924870     6.5052684350    -1.4018438296
 F      4.3060831035     7.3012704721    -1.0137940709
 H      7.3169678544     5.4601135649    -0.5942620853
 F      7.4544765524     4.5641768771    -0.7331066363
 H      5.9470469873     7.2441531880    -0.6392651266
 F      6.8287300503     7.0611039675    -0.4660110957
          10
Energy: -34.36080443096512 Kcal/mole
 H      4.4276847620     4.6836389724    -2.5868059461
 F      3.6883565539     5.1519886483    -2.3130699752
 H      6.5121123668     4.1613426361    -2.1938764097
 F      5.9498008994     4.0507418996    -2.9097411251
 H      4.0837528688     6.5418525336    -1.4697069957
 F      4.4393107170     7.2550004457    -1.0159585278
 H      7.2514253861     5.3715244430    -0.5964537573
 F      7.3380253459     4.4872127205    -0.8231302326
 H      6.0498499803     7.1667808927    -0.5020172022
 F      6.9265358907     6.9500828609    -0.3427916467
          10
Energy: -34.424730050377605 Kcal/mole
 H      4.6014263442     5.0122400617    -2.6744989593
 F      3.8513753735     5.4379382810    -2.3629005518
 H      6.5351013928     4.2322286778    -2.1665589512
 F      6.1096805304     4.3369022375    -2.9721329924
 H      4.1543676546     6.7520355718    -1.4004999660
 F      4.4553898983     7.4262073084    -0.8566552470
 H      7.0791000351     5.1295136215    -0.2858311227
 F      7.0869459053     4.2669342986    -0.5969329614
 H      5.9498431993     7.0260510364    -0.2010163659
 F      6.7886253202     6.7622695103     0.0592774299
          10
Energy: -34.425748483984336 Kcal/mole
 H      4.7657557524     5.1658721005    -2.7153542916
 F      3.9680418148     5.5297741105    -2.4468085769
 H      6.6127446889     4.3200232773    -2.1375624997
 F      6.3041221269     4.5599911995    -2.9670542179
 H      4.2778832570     6.7361905431    -1.3441671470
 F      4.5473510381     7.3382031936    -0.7070981683
 H      6.9999014952     5.0252347685    -0.1234785274
 F      6.9739570771     4.1815374961    -0.4817951467
 H      5.9953064403     6.9305386967     0.0670866780
 F      6.8030648981     6.5953253509     0.3428534033
          10
Energy: -34.43651652037488 Kcal/mole
 H      4.7237723274     4.9405046617    -2.5618702659
 F      3.9409703810     5.3050468266    -2.2532943066
 H      6.6637688553     4.3277500243    -2.0647020317
 F      6.2480560762     4.4524165799    -2.8724954058
 H      4.2928304211     6.7630030496    -1.5438208758
 F      4.6634297303     7.4679572006    -1.0893048728
 H      7.1638014109     5.1718419792    -0.1985602986
 F      7.2392772888     4.3148868512    -0.5160824245
 H      6.0927276883     7.1131926436    -0.2608498937
 F      6.8715818640     6.8005369562     0.1086383932
          10
Energy: -34.432218888354186 Kcal/mole
 H      4.5462416223     4.7254521272    -2.3673838278
 F      3.8121283724     5.1749949649    -2.0513490616
 H      6.5727565821     4.0753861730    -2.0012067296
 F      6.0250035830     4.0600533887    -2.7364757673
 H      4.2859477649     6.6532628631    -1.4923135038
 F      4.7150298922     7.3862647523    -1.1466463829
 H      7.1253168632     5.0255790342    -0.1070285115
 F      7.4166067311     4.2840192836    -0.5610421115
 H      5.8031564720     6.8409205049     0.0313182735
 F      6.3513680012     6.3524201557     0.5806092056
          10
Energy: -34.43916578057073 Kcal/mole
 H      4.4947316430     4.7109265562    -2.1221007603
 F      3.7933336556     5.1679816275    -1.7478942331
 H      6.5083265419     4.0861910997    -1.9440693575
 F      5.9039466682     4.0504795961    -2.6327918392
 H      4.2937566488     6.6847351074    -1.3184051514
 F      4.7274763920     7.4270569234    -0.9994466808
 H      7.2236008164     5.0911310017    -0.1712644489
 F      7.4381854823     4.3098067713    -0.6006533962
 H      5.9287033247     6.8919242288     0.0350734329
 F      6.6244174816     6.5047603365     0.4900184102
          10
Energy: -34.40378666922416 Kcal/mole
 H      4.4421057709     4.6558356586    -2.1816947104
 F      3.7320584099     5.1606673041    -1.8955710399
 H      6.4327951082     3.9449565362    -1.8424260303
 F      5.8639073551     3.9172705872    -2.5610978695
 H      4.2927846733     6.6556848874    -1.3725386373
 F      4.7170447015     7.3839023032    -1.0111637297
 H      7.1875119663     5.0246131310    -0.1055753916
 F      7.3748077426     4.2068178617    -0.4757377744
 H      5.9150954581     6.8685172914     0.0340528581
 F      6.5795918877     6.4484217399     0.5061261814
          10
Energy: -34.47220267463709 Kcal/mole
 H      4.5461461479     4.9063154533    -2.4482272680
 F      3.8028145728     5.3478633188    -2.1426415158
 H      6.4300019918     4.1278262143    -1.8595529603
 F      6.0207202241     4.1913589315    -2.6776856076
 H      4.2734315336     6.7610076479    -1.3998804502
 F      4.6765599163     7.4441179976    -0.9397318250
 H      6.7207345472     4.9273796934     0.1771110169
 F      6.9888571914     4.1861720559    -0.2915151516
 H      5.5843810437     6.7989965007     0.2590784642
 F      6.0713634363     6.3064923456     0.8600583362
          10
Energy: -34.47965912485628 Kcal/mole
 H      4.3926924640     4.8666301891    -2.5188327963
 F      3.7310327931     5.4555090461    -2.2815204036
 H      6.2804839304     4.0121301903    -1.9530663123
 F      5.7525327541     3.9302160038    -2.6983492261
 H      4.3827602055     6.7844803352    -1.5579826050
 F      4.8379589641     7.4326687284    -1.0958842420
 H      6.8059685913     4.9702615574     6.295948E-40
 F      7.1453025639     4.3209562171    -0.5508629529
 H      5.5988022051     6.7077381165     0.1867824172
 F      6.0346524193     6.1818267377     0.7986163918
          10
Energy: -34.45717690384217 Kcal/mole
 H      4.4556803328     4.9082835959    -2.5430231473
 F      3.7151827558     5.2994154445    -2.1694348505
 H      6.3712268839     4.1624266741    -2.1260031634
 F      5.9391213776     4.2902294748    -2.9246521950
 H      4.1572224645     6.7576912593    -1.4379805247
 F      4.5681862971     7.4398460757    -0.9833790127
 H      6.7918655714     4.9217648871    -0.0861930911
 F      6.9448318762     4.1440724319    -0.5473706651
 H      5.7085346318     6.8509627226     0.0757868773
 F      6.3084598808     6.3922834207     0.5959714539
          10
Energy: -34.416961404756705 Kcal/mole
 H      4.3782703487     4.8529956557    -2.4774811600
 F      3.6526354078     5.3584261830    -2.2348231401
 H      6.4852317494     4.2053171950    -2.1271589814
 F      5.8841497762     4.1779109898    -2.8191404562
 H      4.2763801489     6.7150229766    -1.4920116997
 F      4.7267970690     7.3556499752    -1.0149261237
 H      6.9940507991     5.0290150732    -0.1308964871
 F      7.3532934533     4.4118604525    -0.7061824069
 H      5.6234379013     6.6572772417     0.1805782680
 F      6.1557513481     6.1530953289     0.7313341062
          10
Energy: -34.491105828578014 Kcal/mole
 H      4.3960823009     4.8751626803    -2.3532167278
 F      3.6738941862     5.3417289486    -2.0343919415
 H      6.3496679514     4.0621143884    -1.9648936448
 F      5.8588072904     4.1678703918    -2.7322009361
 H      4.2222086485     6.7356414241    -1.2731121865
 F      4.6884135994     7.3825306644    -0.8202587283
 H      6.7823628643     4.8132274046     0.0903993444
 F      7.0588507474     4.1296079715    -0.4546767248
 H      5.6029962734     6.6478476418     0.3445946489
 F      6.1026743911     6.1200401328     0.9037279175
          10
Energy: -34.40329276254556 Kcal/mole
 H      4.4098651631     4.9515182575    -2.3173553795
 F      3.6249104976     5.3103970438    -2.0076116307
 H      6.4704881862     4.3507707343    -1.9107335456
 F      5.9659897466     4.4588318872    -2.6688187069
 H      4.1203576460     6.7343681575    -1.2096004835
 F      4.5728711964     7.3548683737    -0.7085017223
 H      6.8871580345     4.9547319987     0.1368055775
 F      7.2488846560     4.3433569914    -0.4430766965
 H      5.5383650691     6.6186179559     0.4692058108
 F      6.0690338516     6.0915906260     0.9997921249
          10
Energy: -34.44495980662887 Kcal/mole
 H      4.3910758585     5.0091015780    -2.2743290650
 F      3.6553978773     5.4488145245    -1.9482624573
 H      6.4250053800     4.3760422745    -1.9862516975
 F      5.8355823187     4.3169022396    -2.6862316337
 H      4.2411597558     6.8243776871    -1.2113987196
 F      4.6931501453     7.4747861495    -0.7492704691
 H      6.9182037599     5.1002786975     0.0064139830
 F      7.3600272594     4.5947680654    -0.6181978933
 H      5.5282764342     6.6681877118     0.4391773267
 F      5.9993084615     6.1009412182     0.9843830171
          10
Energy: -34.46160820006767 Kcal/mole
 H      4.3363930327     4.8004895176    -2.1000656430
 F      3.6189555721     5.2641789860    -1.7666521355
 H      6.4141711288     4.2030392418    -1.8764506943
 F      5.8029625125     4.1311789872    -2.5562662068
 H      4.1663981203     6.6970627799    -1.1323997859
 F      4.5767508307     7.4082160211    -0.7240363197
 H      7.0105127176     5.0723232688     0.0305036188
 F      7.3910348763     4.5021220480    -0.5785632532
 H      5.5732870787     6.6933325682     0.4193602027
 F      6.0952752816     6.1456027419     0.9374425835
          10
Energy: -34.422197127099366 Kcal/mole
 H      4.2452586239     4.7126236993    -2.0551459927
 F      3.5382732350     5.1846361826    -1.7112493868
 H      6.3803817433     4.2223477548    -1.8972795126
 F      5.6982822524     4.0260879729    -2.4778924495
 H      4.0800388400     6.6403002544    -1.0657534906
 F      4.5662710451     7.3251145283    -0.6976547905
 H      7.0141709916     5.1524701614    -0.0912770794
 F      7.4802699783     4.7222418290    -0.7535038658
 H      5.5123576803     6.5533329764     0.4605047374
 F      6.0354086669     5.9829288903     0.9523846455
          10
Energy: -34.48373281287709 Kcal/mole
 H      4.1414971077     4.7941078779    -2.1771817539
 F      3.4238247648     5.2569489075    -1.8430955531
 H      6.3034883073     4.2884202544    -1.9550794479
 F      5.6348416573     4.1023285648    -2.5543878330
 H      3.9994420715     6.6086958582    -1.0691796331
 F      4.4526249523     7.2663167958    -0.6185700693
 H      7.0063296178     5.1759867788    -0.0936049075
 F      7.3898892851     4.7244353689    -0.7935136914
 H      5.4914019601     6.5699868615     0.4647856902
 F      6.0808565234     6.0757895907     0.9639864267
          10
Energy: -34.4652706925724 Kcal/mole
 H      4.1578853934     4.9239514882    -2.1601572765
 F      3.4914213955     5.3912998212    -1.7379011040
 H      6.2786053679     4.3150509441    -2.0843129469
 F      5.5858809751     4.2223368575    -2.6779677404
 H      4.1150044812     6.7135807577    -0.9914288864
 F      4.5617052298     7.3632213938    -0.5231186419
 H      7.0459503184     5.1090556086    -0.1558942180
 F      7.3966767637     4.6476671254    -0.8665281801
 H      5.5930748580     6.5706671941     0.5073733939
 F      6.1407206962     5.9861367849     0.9538005846
          10
Energy: -34.42093752840259 Kcal/mole
 H      4.1445425857     5.0886374456    -2.3076690636
 F      3.4873665064     5.6642030268    -2.0288629257
 H      6.2097539903     4.2746641643    -2.0229832776
 F      5.5124391206     4.1179591643    -2.5975130988
 H      4.0714871560     6.7767212933    -0.9340359514
 F      4.5113221782     7.3108608260    -0.3322643062
 H      6.9828581084     5.0525077758    -0.1049229795
 F      7.3561242842     4.7018887199    -0.8655987578
 H      5.4955232744     6.4122241758     0.6149730720
 F      6.0681182424     5.8417535420     1.0480865195
          10
Energy: -34.41860524336823 Kcal/mole
 H      4.0963260163     5.1970981990    -2.3473566048
 F      3.4661149655     5.8312279088    -2.1433895913
 H      6.0704641579     4.2546822802    -2.0267824890
 F      5.3484292716     4.1376232222    -2.5798211856
 H      3.9663152952     6.8836180909    -0.9576265494
 F      4.3223068918     7.3745302004    -0.2697571694
 H      6.8044245646     4.9915825177    -0.1739964859
 F      7.2493594868     4.6876439592    -0.9159825152
 H      5.2988341003     6.3413158465     0.6035166240
 F      5.8092232770     5.6753694126     0.9735264014
          10
Energy: -34.44695366358832 Kcal/mole
 H      4.0873446209     5.2519575667    -2.3463904391
 F      3.4264466432     5.8339662329    -2.0907172581
 H      6.0952065987     4.4098590962    -2.0374082498
 F      5.3890820309     4.2038314022    -2.5849753088
 H      3.8534249689     6.7782338341    -0.8034300002
 F      4.1705022639     7.2189121191    -0.0644079179
 H      6.7517918500     5.1048598814    -0.1278530564
 F      7.1994277791     4.8750644948    -0.8944723590
 H      5.2000452715     6.2327043296     0.8176275930
 F      5.7789287342     5.5939439764     1.1303065783
          10
Energy: -34.46444471804779 Kcal/mole
 H      4.2481637110     5.3368707088    -2.3849968374
 F      3.6510182082     6.0272506119    -2.2973507428
 H      6.1327125169     4.3647411699    -1.8314804339
 F      5.4131501866     4.1576834354    -2.3608632324
 H      3.9063064654     6.8637159301    -0.8923057456
 F      4.1659511309     7.2223009911    -0.0892550612
 H      6.7850158334     5.1231591654     0.0012377311
 F      7.2479031249     4.8953799370    -0.7568790003
 H      5.1421082105     6.2132051458     0.7702606913
 F      5.6979082096     5.5892348583     1.1479330908
          10
Energy: -34.41207629243888 Kcal/mole
 H      4.2362508181     5.1809192266    -2.3852324685
 F      3.6273419570     5.8369544496    -2.1858915916
 H      6.1456969195     4.3499432947    -2.0234506773
 F      5.4823304354     4.1102339880    -2.6094313562
 H      3.7869487284     6.6892369195    -0.7609319509
 F      4.0063197176     7.0594533729     0.0488242759
 H      6.6878560855     5.0847741889    -0.0299153910
 F      7.1444741868     4.9200858744    -0.8079042524
 H      5.0463439162     6.0790581717     0.8666899485
 F      5.6130614642     5.4394334287     1.1992563462
          10
Energy: -34.460718646046786 Kcal/mole
 H      4.1070747578     4.9057739458    -2.1977576685
 F      3.4782555973     5.5660040908    -2.0999230176
 H      6.0861004645     4.1453034711    -1.7167503225
 F      5.3671084008     3.8007346473    -2.1697533446
 H      3.7339101868     6.5855959781    -0.8076980021
 F      4.0369279604     7.0636472829    -0.0862160697
 H      6.6750935910     5.1891310349     0.0255352042
 F      7.1381596235     4.9972258710    -0.7423393022
 H      5.0074624319     6.1059647574     0.8442951794
 F      5.5903337769     5.5004126373     1.2109784555
          10
Energy: -34.44585969404582 Kcal/mole
 H      3.9538187927     4.7901985898    -2.0225057920
 F      3.2647306623     5.3636609112    -1.8296651468
 H      6.0747355616     4.1897134729    -1.6979612026
 F      5.3538371725     3.8561896149    -2.1561711422
 H      3.6288073821     6.4801560731    -0.6421778437
 F      3.9777030966     7.0220899831     0.0101015579
 H      6.7473762193     5.1734541515     0.0926003802
 F      7.1683016420     4.8853406359    -0.6694372768
 H      5.0643294659     6.1509110999     0.9296339733
 F      5.7182092415     5.6242651387     1.2983808657
          10
Energy: -34.441682256046874 Kcal/mole
 H      3.9323580219     4.6964599591    -1.9469744570
 F      3.2199754001     5.2445765608    -1.7654030083
 H      6.0771682198     4.2341170566    -1.7376279839
 F      5.3613298264     3.8866204880    -2.1933806901
 H      3.5835845506     6.4689366709    -0.7115414999
 F      3.9138952469     7.0483386838    -0.0821948932
 H      6.7401024143     5.2805720275     0.0271639922
 F      7.1936290211     4.9823070550    -0.7119169392
 H      5.0448612193     6.2899094463     0.8564627182
 F      5.7059927635     5.7756090865     1.2296774299
          10
Energy: -34.48255266209679 Kcal/mole
 H      3.9867624055     4.8354653929    -2.0744360529
 F      3.2930487568     5.4165113437    -1.9259908555
 H      6.0546862882     4.2230184848    -1.6581045952
 F      5.3574197239     3.8847046609    -2.1482597694
 H      3.7244627234     6.5899647416    -0.8313995942
 F      4.0799647708     7.1474870544    -0.1960444454
 H      6.7374135853     5.2326461024     0.0901113460
 F      7.1678171366     4.9519221444    -0.6693857524
 H      5.1501085389     6.3575721362     0.8409521530
 F      5.7472101045     5.8124015905     1.2735579742
          10
Energy: -34.46956321703357 Kcal/mole
 H      4.0007140530     4.8896122498    -2.0653863574
 F      3.3453916891     5.5143201943    -1.9198474158
 H      6.0628359226     4.2516763470    -1.6897136165
 F      5.3692809962     3.9083945433    -2.1816771999
 H      3.7226805965     6.6846419591    -0.7797881051
 F      4.0757291670     7.2370972494    -0.1386649819
 H      6.6637827420     5.2781797895     0.0977900926
 F      7.1222565857     5.0197386844    -0.6531419481
 H      5.0203892491     6.3376673653     0.8823225388
 F      5.6109913285     5.7524751636     1.2691406754
          10
Energy: -34.471633670297706 Kcal/mole
 H      3.9223806069     4.8656165232    -1.9226816061
 F      3.2440507775     5.4328948749    -1.6798793939
 H      5.9963538807     4.1782863745    -1.6593871476
 F      5.2892868535     3.9497312172    -2.1967024732
 H      3.7392042115     6.7489924563    -0.7874456307
 F      4.1565775476     7.3764671853    -0.2649860986
 H      6.7460075833     5.1928024478     0.0979131842
 F      7.1311151533     4.7169779726    -0.5848548792
 H      5.2460467145     6.5804224562     0.7171311588
 F      5.8358535481     6.0471117971     1.1738549702
          10
Energy: -34.48714152985238 Kcal/mole
 H      3.8802424698     4.7721979467    -1.8097714625
 F      3.2299868013     5.3659255806    -1.5537557163
 H      5.9581846429     4.0676064661    -1.5515933703
 F      5.2553232885     3.8710855764    -2.1068000493
 H      3.8825136544     6.7428274595    -0.8603736067
 F      4.3599751281     7.4039928292    -0.4411124768
 H      6.7463732584     5.1067988933     0.1728115702
 F      7.1126520688     4.5935143044    -0.4929720011
 H      5.3547782666     6.6405139657     0.6805805170
 F      5.8744620710     6.0773655979     1.1842487206
          10
Energy: -34.5009933784539 Kcal/mole
 H      3.8664094674     4.6859262451    -1.6506976519
 F      3.2322122641     5.2882508002    -1.3752198170
 H      5.9481327850     3.9934768716    -1.4857322464
 F      5.2078893799     3.7122113120    -1.9481372487
 H      3.8941630253     6.7092666105    -0.7935059124
 F      4.3863960480     7.4037603647    -0.4525160641
 H      6.7894678809     5.2159664464     0.1307014030
 F      7.1348636152     4.6984675275    -0.5429347418
 H      5.3896636108     6.7277856160     0.6836483395
 F      5.9485499598     6.1992873927     1.1828724143
          10
Energy: -34.4611005220998 Kcal/mole
 H      3.8703745339     4.7310826904    -1.7198856029
 F      3.2370027191     5.3493428109    -1.4801282932
 H      5.8980840907     3.9881773334    -1.4534372030
 F      5.1907630255     3.7439770458    -1.9834863803
 H      3.9342538426     6.7302380092    -0.9121130525
 F      4.4595254496     7.3791769920    -0.5328282841
 H      6.7684025393     5.1287934909     0.1958052035
 F      7.0819161205     4.5653407175    -0.4562064579
 H      5.4277947391     6.7306559320     0.6618680784
 F      5.9532702511     6.1919494829     1.1858526660
          10
Energy: -34.45887601704834 Kcal/mole
 H      3.8157051017     4.7669770654    -1.7718183886
 F      3.1835733085     5.3903573200    -1.5422634839
 H      5.8265045629     3.9212916545    -1.4774207474
 F      5.1207412330     3.7878115968    -2.0474823199
 H      3.9917527304     6.7390471970    -1.0189700305
 F      4.5514367934     7.3804026187    -0.6779334158
 H      6.6502156753     5.0078352992     0.2398917799
 F      7.0125606088     4.4309809330    -0.3739764382
 H      5.4005748488     6.6726045199     0.5615295563
 F      5.8505407239     6.1259309418     1.1442539425
          10
Energy: -34.47427628450245 Kcal/mole
 H      3.8466151641     4.6857368859    -1.6853673183
 F      3.2201621648     5.2962819919    -1.4102667671
 H      5.8944077309     3.8753200653    -1.4579140240
 F      5.1882506447     3.7329888547    -2.0253406678
 H      4.0029891230     6.7194458717    -1.0139853515
 F      4.5814821285     7.3660417732    -0.7170870814
 H      6.7007634315     4.9875423327     0.2656961432
 F      7.0560923258     4.4084890385    -0.3501996753
 H      5.3991245703     6.6552687553     0.5458071397
 F      5.8290845843     6.1075654520     1.1425017667
          10
Energy: -34.50305601063869 Kcal/mole
 H      3.8447343703     4.7572808129    -1.7898395997
 F      3.1875480138     5.3478493950    -1.5444341337
 H      5.9061310692     3.9734138160    -1.5026118107
 F      5.1935308405     3.8013309066    -2.0534996271
 H      3.9544523880     6.7451394819    -1.0884504581
 F      4.5119353741     7.4046136973    -0.7799128115
 H      6.7559577603     5.0900569355     0.1813788730
 F      7.0667057745     4.4557247604    -0.4033837825
 H      5.4278800556     6.7691676508     0.4359072863
 F      5.9385460992     6.2850019331     1.0238637046
          10
Energy: -34.49670734786912 Kcal/mole
 H      3.8577100147     4.7399185848    -1.8081813143
 F      3.1964509819     5.3297818810    -1.5722008421
 H      5.9269268868     4.0277137765    -1.5844502947
 F      5.1983188864     3.8005772324    -2.0928088021
 H      3.9240685819     6.7602517773    -1.0875279242
 F      4.4705040229     7.4159793776    -0.7523882174
 H      6.7412812426     5.1672280352     0.0715288098
 F      7.1142251364     4.6405839572    -0.5799678266
 H      5.3413353946     6.7254054642     0.4836434097
 F      5.8369356025     6.1896849759     1.0388667813
          10
Energy: -34.49592304418459 Kcal/mole
 H      3.8758168531     4.6899937255    -1.8746488582
 F      3.2516935677     5.3403016202    -1.7059515947
 H      5.9028818232     3.8669242767    -1.5445255321
 F      5.1528124475     3.6132196272    -2.0070391886
 H      3.9208132429     6.7147450325    -1.0787960190
 F      4.4137200652     7.3830519890    -0.6898259990
 H      6.7485475675     5.0680135681     0.0293042705
 F      7.1102716492     4.5077920505    -0.6001371803
 H      5.3774859959     6.6885318664     0.4602946408
 F      5.8902121024     6.1421195116     0.9889102651
          10
Energy: -34.49952508123474 Kcal/mole
 H      3.9278252685     4.7725141851    -2.0260473700
 F      3.3058544064     5.4386402938    -1.9244734852
 H      5.9152354892     3.9797551193    -1.5978501022
 F      5.1713694989     3.6713202368    -2.0365074989
 H      3.9129418841     6.7908860301    -1.1316720943
 F      4.3636813859     7.4317117693    -0.6551584286
 H      6.7547707607     5.1819781386    -0.0176088518
 F      7.1219574352     4.6926457060    -0.7007023420
 H      5.3023474284     6.6702319361     0.4633022880
 F      5.8264331280     6.1227000866     0.9794728540
          10
Energy: -34.477931431991465 Kcal/mole
 H      3.9802664527     4.8480756430    -2.1707184419
 F      3.4347395491     5.5846526141    -2.1434464223
 H      5.8930282896     3.9186551087    -1.5635756735
 F      5.1547853041     3.6344994629    -2.0274095482
 H      4.0242098993     6.8278646577    -1.2177528369
 F      4.4326859778     7.4415525073    -0.6723873479
 H      6.7745997352     5.1530947232    -0.0250338864
 F      7.1155703970     4.6284988072    -0.6954271537
 H      5.3528812432     6.6510559731     0.4624023633
 F      5.8520740035     6.0885172541     0.9870410748
          10
Energy: -34.45708226362606 Kcal/mole
 H      3.8693622949     4.8459922467    -2.1219243870
 F      3.3426802326     5.5963063987    -2.0990403604
 H      5.8080125892     3.9452571996    -1.5629027643
 F      5.0420107391     3.6683013339    -1.9841219640
 H      4.0274644776     6.8685789607    -1.2459076150
 F      4.4743953992     7.4809527830    -0.7300199790
 H      6.7279775883     5.1633647538    -0.0212230228
 F      7.0558570725     4.6267343217    -0.6886148292
 H      5.3697360890     6.6827217765     0.4383263960
 F      5.8579840538     6.1276014738     0.9808615326
          10
Energy: -34.502598956819895 Kcal/mole
 H      3.8696035814     4.8044333800    -1.9857109899
 F      3.2874522887     5.5083250511    -1.9049311172
 H      5.8346284209     3.9173812589    -1.5395868168
 F      5.0817718063     3.6546870367    -1.9924528715
 H      4.0127953890     6.8242405561    -1.1813511741
 F      4.5241449357     7.4604856230    -0.7634961085
 H      6.7245569134     5.1430244910    -2.853751E-40
 F      7.0772653046     4.6174988162    -0.6638428751
 H      5.3762317737     6.6963916826     0.4584507183
 F      5.8581758871     6.1311300708     0.9961292299
          10
Energy: -34.4789765060639 Kcal/mole
 H      3.8610200966     4.8328432960    -1.9594291351
 F      3.2789501519     5.5355319185    -1.8682574329
 H      5.8133990291     3.8927706657    -1.5276128053
 F      5.0655181932     3.6950553565    -2.0200271753
 H      4.0640869699     6.8481229184    -1.2349023513
 F      4.5947848456     7.4583297241    -0.8025871665
 H      6.7373400624     5.0281270728     0.0613572149
 F      7.0564092711     4.4580233434    -0.5821220605
 H      5.4389128635     6.7017699938     0.4408037448
 F      5.9234773603     6.1496293902     0.9896452541
          10
Energy: -34.487476507622404 Kcal/mole
 H      3.8525280973     4.8343748757    -1.9920196614
 F      3.2695416629     5.5284362328    -1.8531144783
 H      5.8370482559     3.9412809423    -1.6119245262
 F      5.1003872017     3.7347788272    -2.1174701400
 H      4.1508778445     6.8492704415    -1.3239314703
 F      4.7449330069     7.4608374248    -0.9863321682
 H      6.6976900231     5.1145207626     0.0033816599
 F      7.0394540482     4.5388164768    -0.6232369853
 H      5.4697707043     6.7504010204     0.3243592597