          3
Energy: -0.2069997416701277 Kcal/mole
 Ne    -3.0059275895     1.9379880907    -1.7710328231
 Ne    -3.4725455922     4.7719822557    -0.5522407585
 Ne    -5.2361443571     3.7862396613    -2.9315179993
