          3
Energy: -0.0027252052611869432 Kcal/mole
 Ne     2.5067571364    -3.4237226069    -2.0829629215
 Ne     2.8837521881    -0.8342075538     3.9885912074
 Ne    -4.1008536678     0.0729891735     2.8282776989
