          3
Energy: -2.4341723808496556E-4 Kcal/mole
 Ne    -5.8614223474    -2.3822486887     2.5600861557
 Ne    -7.3783967717    -2.3540012412    -6.7107519867
 Ne     1.0170524447     6.9368017539    -1.3232092831
          3
Energy: -0.001512324714890839 Kcal/mole
 Ne    -1.7417356820    -1.3354209895     1.0921281918
 Ne     6.5746424546     6.4117786436    -6.2642551234
 Ne     4.9853306553     5.1654999990     0.2067135577
          3
Energy: -6.629043977403947E-4 Kcal/mole
 Ne    -5.9055994133    -4.8574661314    -5.8188281431
 Ne    -6.9295680456    -2.3245043126     1.8463714176
 Ne    -1.2593833776     4.4168308449    -2.2392330022
          3
Energy: -1.9563665748619698E-4 Kcal/mole
 Ne     0.6096053498    -4.5736021836    -5.8062328688
 Ne     4.6786974693     5.6315379257     7.1798604671
 Ne     3.7079668243    -7.4948830371     2.6904031864
          3
Energy: -0.003435905054924518 Kcal/mole
 Ne    -5.5244982646    -4.8374935019     3.8507898274
 Ne    -1.1319875339    -7.2946087160     6.6626507126
 Ne     7.2422370850     1.5305973122    -5.5353377592
          3
Energy: -8.1859330717308E-4 Kcal/mole
 Ne     0.7451824684    -2.2702797929     2.4658117027
 Ne     0.8542963138    -3.8659181572    -7.4858511203
 Ne     5.9342067502     1.3269746247    -3.9652619356
          3
Energy: -0.03723977525039332 Kcal/mole
 Ne    -3.9061686446     7.0392840146     5.1813380248
 Ne    -5.5641882550     6.0512059866     1.9386359923
 Ne     0.4641972130    -2.3679390417     5.5855448148
          3
Energy: -0.0740033923780825 Kcal/mole
 Ne    -4.5647980701    -4.0002680155    -3.1006483504
 Ne    -6.5393953495    -0.1755558603    -3.9347087879
 Ne    -3.1334657761    -5.8741890451    -0.6193644391
          3
Energy: -0.17752249753596333 Kcal/mole
 Ne     4.5227052184     4.3393763801    -0.8799413959
 Ne     1.6985134265     2.6386126469    -0.7219045841
 Ne     4.0517529464     0.9503210392    -2.0178593130
          3
Energy: -0.2069956926742712 Kcal/mole
 Ne     4.5532736893     3.9525596452    -0.9435841208
 Ne     1.6678163459     2.7717620021    -0.8864584796
 Ne     4.0460859581     1.0192543780    -1.8908673112
