          3
Energy: -0.20699666519973137 Kcal/mole
 Ne     3.0893141933    -1.8725309106    -2.1691304426
 Ne     1.7655839670     0.9549013209    -2.0977889673
 Ne     4.8659464228     0.6813802162    -1.9054821740
