          3
Energy: -8.355073628154456E-5 Kcal/mole
 Ne    -1.0494656098     6.3254339191    -7.4258076621
 Ne    -5.6182920648     4.1309968123     6.4838597195
 Ne     6.2567342380     3.7858008531     1.7777858910
          3
Energy: -0.0032431528905618435 Kcal/mole
 Ne    -1.3059002770     0.0899751708     1.1851573781
 Ne    -4.5814207340    -0.5997074284    -4.0250715307
 Ne    -3.9586564216     6.1667661890     4.0004042002
          3
Energy: -3.9359672615770896E-4 Kcal/mole
 Ne    -3.8043404248    -4.8920425428     1.3328712543
 Ne    -5.6415929777    -6.2504302446    -7.0927344697
 Ne     0.6730836320     3.4268642629    -5.1048620896
          3
Energy: -0.0043473716588044355 Kcal/mole
 Ne    -0.4515170493    -4.9033101485     3.0451001107
 Ne     4.6624045872    -1.7564782009     1.5545093763
 Ne     4.3378604184     4.2080632064     3.6133438949
          3
Energy: -0.006136241789737203 Kcal/mole
 Ne     2.8362295637    -3.4225546491     0.7836735065
 Ne    -0.9915596285    -1.8021708753    -4.2863032038
 Ne    -3.4645598155     2.8605932133    -5.8713593309
          3
Energy: -0.016111185389223435 Kcal/mole
 Ne     3.0177489275    -5.9620411678    -6.7335408627
 Ne    -0.1066598548    -5.4365720125    -2.9769500919
 Ne     5.0322111793    -1.3079815207    -7.4599815292
          3
Energy: -2.354373086076883E-4 Kcal/mole
 Ne     3.5102952613    -1.7159719274    -5.2772531261
 Ne    -2.1415182564    -4.5946785922     4.5968457963
 Ne    -3.0618641154     4.7803475706     0.9994020660
          3
Energy: -0.034694495316449483 Kcal/mole
 Ne     5.3641468711    -4.0636717345     1.0974201786
 Ne     6.3971992948     2.6666920576    -3.5742062038
 Ne     5.4141084595    -1.1675657963    -3.4117650119
          3
Energy: -0.14663699438824948 Kcal/mole
 Ne     3.0378751303    -1.7475668899    -2.4569183408
 Ne     1.7013113342     0.7280076733    -1.7441610385
 Ne     4.5436618388     0.6093778712    -1.4425363946
          3
Energy: -0.20699666519973137 Kcal/mole
 Ne     3.0893141933    -1.8725309106    -2.1691304426
 Ne     1.7655839670     0.9549013209    -2.0977889673
 Ne     4.8659464228     0.6813802162    -1.9054821740
