          3
Energy: -0.2069994243291054 Kcal/mole
 Ne    -1.0201967690    -0.0015592632    -5.9101119181
 Ne     0.4332670755     0.7030257946    -3.2415717773
 Ne    -2.5747214331     1.4388420008    -3.6190384922
