          3
Energy: -0.2069956926742712 Kcal/mole
 Ne     4.5532736893     3.9525596452    -0.9435841208
 Ne     1.6678163459     2.7717620021    -0.8864584796
 Ne     4.0460859581     1.0192543780    -1.8908673112
