          4
Energy: -6.698852367818578E-4 Kcal/mole
 He     6.0086669614    -6.7767442303     3.1998982217
 He    -7.3571843231    -1.1345964398     2.3744541919
 He    -3.2012554527    -1.4403069644    -1.5628529570
 He     1.0675414642     6.5876449022    -4.3820305592
          4
Energy: -2.616146213233613E-4 Kcal/mole
 He     6.7918508589     1.8241600633    -0.1430791604
 He    -3.8872074976    -6.0864488268    -5.5141109505
 He    -2.5887991206     0.5932223780    -6.3772031255
 He     1.6123950486    -6.2775298306     3.9171641107
          4
Energy: -0.00475639109511152 Kcal/mole
 He    -2.0534163355     5.0318389016     3.5448829812
 He    -1.2897190873     4.8718763408    -0.6547066818
 He     6.2345602528    -2.3921952091    -1.1950514039
 He     1.1012383455    -2.1486180765    -0.0891011804
          4
Energy: -0.0046470850964908175 Kcal/mole
 He     1.8380931340     6.5369890533     4.0032276611
 He     2.5804967686     4.3723319854     0.4158947166
 He    -5.1066113868    -6.1924713474     0.6921608580
 He     0.7597676520     0.8542637586     4.8923796908
          4
Energy: -5.669005339934735E-4 Kcal/mole
 He    -6.9310602002    -6.1010835811    -7.0792850086
 He    -4.1405113789     4.7402898343     2.2763663952
 He     6.0150121550     3.3671462468    -0.5687486822
 He    -2.9567076507    -0.9236967677     0.9717037478
          4
Energy: -0.0013488047999416807 Kcal/mole
 He    -3.0969118022    -5.1303866437    -0.9688810068
 He    -4.5218846076     6.0254819384     2.9557085506
 He     7.2497418897    -2.8604432379    -2.5218164443
 He     3.1118747500    -5.7174336239    -0.7138511533
          4
Energy: -0.001422018423037288 Kcal/mole
 He    -6.9311911301    -0.3035872867     5.6737931889
 He    -1.9698542986    -3.6345413780     6.7033206306
 He     5.2756485351     1.3795344019     1.5335433664
 He     2.1076738319     4.2411115507    -1.6925723307
          4
Energy: -0.009497547264737914 Kcal/mole
 He    -4.8055678144     4.1349356447    -3.7319048089
 He     3.3600109966    -4.7622033956    -3.5056852398
 He     0.3299777598     5.5922101974     0.5954600396
 He     6.7163842626    -5.4748252445    -4.5077977548
          4
Energy: -0.04122124202526583 Kcal/mole
 He     2.0690231026    -2.0783335570    -3.1412194499
 He    -1.2129790833    -5.5871343811    -0.8946430980
 He     0.6771177287    -3.0136403115    -6.9135347779
 He     1.5549817098    -4.5943296254    -1.2777120545
          4
Energy: -0.11997216296452293 Kcal/mole
 He     2.2314040218    -2.0013895643    -3.2715023000
 He     0.1625985017    -2.0272634032    -1.2790857123
 He    -0.2678497237    -3.3061478896    -3.8100963706
 He     1.5609044718    -4.4372236739    -1.9301400875
