          4
Energy: -0.11996905263458517 Kcal/mole
 He    -2.2965842441     3.6968530330     1.1202202658
 He    -0.9033209529     1.4836837532     2.3210359892
 He     0.4711427774     3.9605213320     1.8563744055
 He    -0.2673832781     2.3108644728    -0.3671298908
