          4
Energy: -0.11996030030795721 Kcal/mole
 He    -5.4522316027    -3.3885896712     4.8525733032
 He    -2.6187029095    -3.1646618547     4.4561013106
 He    -4.1006490503    -5.1407833965     3.0078620468
 He    -4.4217005011    -2.3474363090     2.3954376333
