          4
Energy: -0.02303761179448072 Kcal/mole
 He     2.7470812957    -3.6785699584    -0.4382754816
 He     5.3609854305    -5.7115101801     3.3663042791
 He     1.7359184534    -2.5554523057     2.7509804553
 He     2.7069307139    -1.7955692459    -3.4364914873
          4
Energy: -0.0071856781723293635 Kcal/mole
 He     2.0576415063     0.9480840246    -4.4766173123
 He    -0.8955066021     2.2785070372     4.2721960456
 He    -5.7452842603     2.4643681667     6.3568677786
 He     2.8732441708     2.5371958241     5.1296799158
          4
Energy: -0.017305597698386195 Kcal/mole
 He    -5.4985475623     1.1899285362     4.8461381129
 He     2.2173736248     1.3725503565     5.6012694779
 He     4.1948511353     5.1122297506     7.0561219853
 He     5.6609047987     1.5524219631     6.8037571053
          4
Energy: -0.019055802115097248 Kcal/mole
 He     6.4756446014    -2.4620580323    -3.7093321400
 He     3.5623688568    -1.4204722467    -3.9317266507
 He     0.1163053106    -3.3167949839    -1.0501887185
 He    -1.2461707897     6.8224992966     2.3873744370
          4
Energy: -0.0016617550576619824 Kcal/mole
 He     3.0674192539     6.0662337255    -6.6111261904
 He    -2.8801209057    -2.3521316387    -3.4878503889
 He    -3.0214761372     3.5731354655     7.4343112824
 He     0.5773364377     1.4370686249    -3.4906233156
          4
Energy: -4.3860473635735713E-4 Kcal/mole
 He     1.5497575578     6.9808481879    -5.6274104799
 He     5.5791467367    -0.5493326556     7.4180615821
 He     0.4070501640     2.7196223826     7.3732460805
 He     5.9859634574    -6.6609018376    -3.1562460725
          4
Energy: -0.0022350079438825977 Kcal/mole
 He    -6.3633818329     7.0049088450    -5.9860171154
 He     6.9218194427    -5.0798584516    -6.5535815318
 He     2.8497403088     2.8959778121    -0.9869903797
 He     6.0070221281     4.6835662219     1.8893228475
          4
Energy: -0.01093217916890723 Kcal/mole
 He    -5.6654751410    -4.0419313997     0.7158226820
 He    -0.7548375635    -0.4635876452    -6.6144866272
 He    -3.3964667941    -1.3480811909    -0.5765363853
 He     2.2521190571    -3.4982816695    -7.0737959572
          4
Energy: -0.0015873044869808178 Kcal/mole
 He    -4.2269839290     4.3171042868     0.2443999140
 He     3.8621602892    -0.1005932926     7.0208125416
 He    -1.2727031205     6.1745193839     3.7317009099
 He     0.8881319099    -6.4437677184    -4.5434072530
          4
Energy: -0.11996905263458517 Kcal/mole
 He    -2.2965842441     3.6968530330     1.1202202658
 He    -0.9033209529     1.4836837532     2.3210359892
 He     0.4711427774     3.9605213320     1.8563744055
 He    -0.2673832781     2.3108644728    -0.3671298908
