          4
Energy: -7.04552400461408E-4 Kcal/mole
 He    -1.9293592387     1.4138021069     5.8929264657
 He     1.6856562427    -6.7049597279     4.7365337219
 He     6.9705915019     2.6331571781     6.3669574564
 He     2.6398236686    -0.9220211078     1.4728473325
          4
Energy: -0.0197122205238607 Kcal/mole
 He    -1.3640332288     3.0852437843     1.3485318204
 He     2.9565186362    -2.8963527415    -5.6251459105
 He     0.1765410183    -2.4362261400     6.0536187246
 He    -1.0481746005     4.5372100846     3.7152595606
          4
Energy: -7.893773625207885E-4 Kcal/mole
 He    -6.5635264805    -2.0524901709    -6.4978440428
 He    -4.4927263057     3.0109658543    -3.7221213259
 He     2.3024257221     1.9492145707    -1.2851173658
 He     0.5660625564     3.0634555972     5.3768608919
          4
Energy: -0.0013785843893181163 Kcal/mole
 He     5.4418961159     4.6373154473    -5.1167818712
 He    -7.4206473341    -6.8788068684    -1.8406118740
 He     0.6544632068     4.1220001506    -3.5693893939
 He     0.6973138487    -1.1417402440     3.6454718048
          4
Energy: -0.0032968335694434077 Kcal/mole
 He     0.8069092508    -0.0162398362     7.3146741272
 He    -1.1180670867    -0.5799905862     1.2095313476
 He    -3.5328879276     1.9629444600     4.3533630476
 He    -5.3071515793     5.0493828674    -1.8527874279
          4
Energy: -0.0021955139360198017 Kcal/mole
 He     4.7360632463    -0.9038030819     3.8944676219
 He    -1.9821717453     2.6962550567     3.0215709445
 He    -7.4995130769     4.4666509657     5.6343601997
 He    -2.1776234963    -1.7997975236     1.0965596491
          4
Energy: -0.0013461250708446135 Kcal/mole
 He     1.2897172775    -5.1257776504     1.5969844576
 He    -6.3906311341    -6.8609682315     2.5343152878
 He     6.4625413788     4.8695845471    -1.5347924886
 He    -0.4052676957    -3.6861724156    -3.0413558162
          4
Energy: -0.0047326827173648865 Kcal/mole
 He    -3.2090224272     6.5602110304    -3.2019179460
 He    -2.1990494228     6.2015872590     6.0709549559
 He    -5.4670799865    -4.7630472754     6.8676128873
 He    -1.1788489119     4.3472203239    -5.9320543323
          4
Energy: -0.002625903372721929 Kcal/mole
 He    -5.1482449069    -0.4002287130    -5.9558409573
 He     1.2567486756    -6.8915772140     0.7185601721
 He     1.2829671196     0.9378575569     6.0567617684
 He    -3.0707465427    -4.1127544102    -4.3242244840
          4
Energy: -0.11994248237662619 Kcal/mole
 He     0.0903665155    -3.7861080444    -3.6698332022
 He    -0.3233531987    -2.9662302304    -0.9471598116
 He    -1.5354928490    -5.3821254965    -1.9524364066
 He    -2.4776869345    -2.8331094358    -2.8431748285
