          4
Energy: -0.0012354155786247483 Kcal/mole
 He    -0.9145904879     0.9792856658     4.9424810706
 He     4.8299604014     4.5235627177     4.1192041432
 He    -2.1855747253    -3.8309858851    -0.5939724589
 He    -0.2037146280     3.2925878176    -0.4315033277
