          4
Energy: -0.11997216296452293 Kcal/mole
 He     2.2314040218    -2.0013895643    -3.2715023000
 He     0.1625985017    -2.0272634032    -1.2790857123
 He    -0.2678497237    -3.3061478896    -3.8100963706
 He     1.5609044718    -4.4372236739    -1.9301400875
