          4
Energy: -0.11994248237662619 Kcal/mole
 He     0.0903665155    -3.7861080444    -3.6698332022
 He    -0.3233531987    -2.9662302304    -0.9471598116
 He    -1.5354928490    -5.3821254965    -1.9524364066
 He    -2.4776869345    -2.8331094358    -2.8431748285
