          2
Energy: -0.004119331163880854 Kcal/mole
 Ar    -3.6960791693     1.5767891311     3.5977092502
 Ar     4.6984305591     1.5642643772     3.6114249945
