          2
Energy: -0.23390000012967815 Kcal/mole
 Ar     0.2397776838     2.6611295179    -7.1816422438
 Ar    -1.4868510036     3.5621438287    -3.8983186101
