          2
Energy: -0.23389999968445768 Kcal/mole
 Ar     6.7575722116    -7.0386346356     4.8037111898
 Ar     4.9068146619    -3.8399847742     5.7609872021
