          2
Energy: -0.22668297097515688 Kcal/mole
 Ar    -0.5827985524    -1.7466000122     2.0876710049
 Ar    -0.7862431964     0.5923537409     4.9679268996
          2
Energy: -7.000233963545573E-5 Kcal/mole
 Ar     6.7470147739     6.0270312711     6.4308915520
 Ar    -2.1400386412    -3.2886163620    -3.9964821399
          2
Energy: -3.773758079659469E-4 Kcal/mole
 Ar     1.7693536083     5.7698030092    -5.2211262737
 Ar     5.4148314652     0.1155899523     5.3272818456
          2
Energy: -0.04954983532736773 Kcal/mole
 Ar    -3.6539792805     0.5413935339    -5.0939439187
 Ar    -0.8566811377    -3.8598459157    -3.3567424041
          2
Energy: -0.22875586551099492 Kcal/mole
 Ar    -4.8645233640    -7.1208413478     5.1468773124
 Ar    -7.3239527823    -5.0854427355     3.2168204067
          2
Energy: -0.2078654185473252 Kcal/mole
 Ar    -6.2180225263    -0.6390056924     5.8310023193
 Ar    -4.8028490623    -2.1522982786     2.8398583814
          2
Energy: -4.073292584957392E-4 Kcal/mole
 Ar     4.0531040843    -3.6411290271     4.5844324866
 Ar    -2.4919039230     6.7508425534     3.2571098829
          2
Energy: -0.22334031581656244 Kcal/mole
 Ar    -3.5667033429     0.6161377358    -3.7964184942
 Ar    -5.3158061607     0.0451250994    -7.3171591666
          2
Energy: -0.2039573751420075 Kcal/mole
 Ar    -1.1837559156     2.1119509346     4.2543054834
 Ar    -3.5186860612    -0.0930412827     6.8189628924
          2
Energy: -0.23389999978738094 Kcal/mole
 Ar    -1.3464203366     2.2809915545     4.1650104475
 Ar    -3.1688233861     0.6540413668     7.0984938286
