          2
Energy: -0.23389999978738094 Kcal/mole
 Ar    -1.3464203366     2.2809915545     4.1650104475
 Ar    -3.1688233861     0.6540413668     7.0984938286
