          2
Energy: -6.047826611177755E-4 Kcal/mole
 Ar     5.4452718787     4.0819012451    -2.0134509327
 Ar    -5.2581616810    -0.2222992646    -1.2028256413
          2
Energy: -1.0907129563240903E-4 Kcal/mole
 Ar    -7.0390915052     1.9325275028    -4.4435660258
 Ar     7.2406297835    -3.1702006583    -1.8321099283
          2
Energy: -0.03970520651216449 Kcal/mole
 Ar     1.9834027376    -3.1633156746     3.0979101415
 Ar    -1.4423301588    -7.4171190532     4.7808100885
          2
Energy: -0.004206760590401963 Kcal/mole
 Ar    -0.2710685394     4.3101359663     0.4542398184
 Ar     1.3976827547    -2.7324534159    -3.7399859905
          2
Energy: -0.01905480810626005 Kcal/mole
 Ar     2.7225538691     7.0868501862     7.2082079424
 Ar     2.1995347850     2.4549096192     2.6991905771
          2
Energy: -0.019621059355701628 Kcal/mole
 Ar     0.6240246968     3.1888787867     5.0161329014
 Ar     3.0196549185     3.5006727032    -0.9676683963
          2
Energy: -0.09861067874118082 Kcal/mole
 Ar    -2.1665675211    -1.9778536104     1.0974893835
 Ar    -3.4878467742    -0.9577699427    -3.4502018112
          2
Energy: -0.16474188414081978 Kcal/mole
 Ar    -5.3293171090     1.9794977918    -2.3709186270
 Ar    -6.8224478888    -1.1454014431    -5.0045299835
          2
Energy: -0.23350320734815616 Kcal/mole
 Ar     0.2532305019     2.6719547242    -7.2177057409
 Ar    -1.7238353887     3.2702639639    -3.9754460388
          2
Energy: -0.23390000012967815 Kcal/mole
 Ar     0.2397776838     2.6611295179    -7.1816422438
 Ar    -1.4868510036     3.5621438287    -3.8983186101
