          2
Energy: -0.23390000013387544 Kcal/mole
 Ar    -0.0278748010     3.3577004677     5.6260861987
 Ar    -3.4350843894     4.0506412694     4.0500188916
