          3
Energy: -1.29899966158892 Kcal/mole
 Xe     4.5927384289     5.6924225926     0.3863910565
 Xe     2.0137619747     3.4844284065    -2.4398646789
 Xe     0.2787027951     6.6099509936     0.1544456278
