          3
Energy: -1.2989991583630758 Kcal/mole
 Xe    -2.6200186270    -2.6059643334    -1.7040271068
 Xe    -2.7603916160     0.5900166137    -4.7494703678
 Xe    -0.8691597815    -3.2852996347    -5.7012689796
