          3
Energy: -1.2989977060903322 Kcal/mole
 Xe    -3.0725357945    -3.6918413296     2.3211045948
 Xe    -0.0675134355    -3.0629233954     5.4973784659
 Xe    -2.6807057246    -6.6222187372     5.6047297751
