          3
Energy: -1.2989944401351075 Kcal/mole
 Xe    -0.4246432764     4.9035302229     6.5131832110
 Xe    -4.5268481980     4.6016727424     4.9070350298
 Xe    -1.1013979826     5.0305529932     2.1526472937
