          3
Energy: -0.032151084849423 Kcal/mole
 Xe     3.1216170458     1.4452874929     1.3096583796
 Xe    -4.4701182358    -3.2572810286    -3.6667034653
 Xe    -2.6793963385     5.0360252303    -4.8787978586
