          3
Energy: -0.017003182376887666 Kcal/mole
 Xe    -3.1546669404     6.1185632265     4.9462787424
 Xe    -7.0145309419     4.0103466492    -2.4850652399
 Xe     6.8604835687     5.0386469235    -4.8980238421
          3
Energy: -0.4225404930350336 Kcal/mole
 Xe     1.0769496084    -7.9689720591    -0.8443632013
 Xe    -1.6847350507    -5.4691210285    -3.4604122977
 Xe     3.2284262165     6.0771385366     3.3348546267
          3
Energy: -0.3093287107672723 Kcal/mole
 Xe    -4.1658656183     5.1159906016     1.0485214570
 Xe    -1.7900913483    -1.2491068850     5.4549038940
 Xe     2.6770834790    -0.4107739973     7.8119561632
          3
Energy: -0.05393546237572844 Kcal/mole
 Xe     4.1193979458     8.2247637187    -4.6415548585
 Xe     1.7977210305    -0.6338472383     4.9084466098
 Xe    -1.0942374752    -5.0412522079     0.2771084168
          3
Energy: -0.3604719911385144 Kcal/mole
 Xe    -2.7683982293     3.6209508763    -6.2097918244
 Xe     4.6621508855     1.3153855618     4.1895210535
 Xe    -4.1306643793    -1.0070120124    -5.9576443474
          3
Energy: -0.3906321279832984 Kcal/mole
 Xe    -1.0654070952    -0.4698081664     3.3543384119
 Xe    -7.1643571953    -1.4046601523    -6.8118873898
 Xe     2.8705671136    -2.7687071296     2.1455229425
          3
Energy: -1.2079273468908194 Kcal/mole
 Xe    -4.0930986384    -6.1102019810    -6.3021252993
 Xe    -6.8935154784    -6.7087383982    -2.3912505805
 Xe    -7.5112826772    -3.6239105946    -5.4014056614
          3
Energy: -1.252586344630806 Kcal/mole
 Xe    -2.5976678421    -1.4673278986    -0.9391839552
 Xe    -2.4679585822    -0.4538225863    -5.2792809688
 Xe     0.6232508534     0.9796533818    -2.7942757588
          3
Energy: -1.2703178742071823 Kcal/mole
 Xe     4.6303902999     5.5759983220     0.5409211073
 Xe     1.8312637568     3.4369931638    -2.4657039331
 Xe     0.4907587828     6.8585033031    -0.0032542722
          3
Energy: -1.29899966158892 Kcal/mole
 Xe     4.5927384289     5.6924225926     0.3863910565
 Xe     2.0137619747     3.4844284065    -2.4398646789
 Xe     0.2787027951     6.6099509936     0.1544456278
