          4
Energy: -6.327993309926228 Kcal/mole
 H     -2.2977696564     4.9527669305    -1.2767935266
 F     -2.8898064965     4.5860017951    -1.8733375027
 H     -1.7437810499     5.2306380452     0.8771302487
 F     -1.4068160706     5.4865892534     0.0635993140
