          4
Energy: -6.324844751421324 Kcal/mole
 H     -2.3051710436     5.0596991988    -1.1664704658
 F     -2.4139769603     4.6135357226    -1.9601885675
 H     -1.0369405419     6.4364043714     0.0366587049
 F     -1.8206734817     5.9775746911     0.1636508448
          4
Energy: -6.326427778271636 Kcal/mole
 H     -2.3448269866     5.0695853179    -1.1637423479
 F     -2.4966302504     4.6696143344    -1.9748329603
 H     -0.9659637953     6.3567808721     0.0540703584
 F     -1.7730562104     5.9383782751     0.1741957106
          4
Energy: -6.327398106898158 Kcal/mole
 H     -2.0686727022     4.9444390178    -1.1531470270
 F     -2.2637138242     4.6188096702    -1.9879005766
 H     -1.7809075985     6.7688950382     0.1373967319
 F     -1.7454516508     5.8586039317     0.2422870421
          4
Energy: -6.327324534733009 Kcal/mole
 H     -2.0009260989     5.0047066259    -1.2120314778
 F     -2.2464279933     4.6976185557    -2.0404726265
 H     -2.1524751997     6.6649414358     0.2996140372
 F     -1.7402623983     5.8483334505     0.2354189853
          4
Energy: -6.325790832403413 Kcal/mole
 H     -2.0510750801     4.9951488508    -1.1893268578
 F     -2.2641235097     4.7262562040    -2.0397362364
 H     -1.9371044744     6.7267331519     0.2182561338
 F     -1.7536188311     5.8289218182     0.2522683053
          4
Energy: -6.326484995305634 Kcal/mole
 H     -1.8810114015     5.0883256800    -1.2790532770
 F     -2.1774931025     4.6674173085    -2.0378837876
 H     -2.3951769061     5.7800674549     0.7925266273
 F     -1.6660994995     5.8092847634     0.2371155327
          4
Energy: -6.326884148095189 Kcal/mole
 H     -1.9099950512     5.0177696284    -1.2436232943
 F     -2.2090499893     4.6499052161    -2.0285633672
 H     -2.4287979066     6.1982525604     0.6054078060
 F     -1.6855728208     5.7940437145     0.2516837883
          4
Energy: -6.326090558955627 Kcal/mole
 H     -1.8965738634     4.9852250069    -1.2095700454
 F     -2.2036410204     4.5226730476    -1.9393949874
 H     -2.3907755178     5.7270176261     0.8226115833
 F     -1.6617866521     5.7714641618     0.2680949116
          4
Energy: -6.324442509250616 Kcal/mole
 H     -1.9363071090     4.9551663128    -1.1892926760
 F     -2.2969185172     4.5074197219    -1.9036955053
 H     -2.1998943044     5.6875855291     0.9407585576
 F     -1.5650442487     5.7188990043     0.2797942068
          4
Energy: -6.325908217145468 Kcal/mole
 H     -2.0261717229     5.0391546631    -1.2273820789
 F     -2.3107699990     4.5270434738    -1.9328145357
 H     -1.4987597094     5.1354552895     0.9622645536
 F     -1.5440232662     5.7144673529     0.2526271526
          4
Energy: -6.32476577151192 Kcal/mole
 H     -2.0775692178     5.0574680944    -1.2179000859
 F     -2.3438391765     4.5258525895    -1.9160220409
 H     -1.4504241210     5.1010409868     0.9275980994
 F     -1.5465873575     5.7162929521     0.2544661279
          4
Energy: -6.327395221136555 Kcal/mole
 H     -2.2234749842     5.0399793381    -1.1372632308
 F     -2.5092219765     4.5172552890    -1.8343982428
 H     -0.8558106110     5.1843513867     0.6211082381
 F     -1.4765981027     5.7280788282     0.2212678205
          4
Energy: -6.326457339869194 Kcal/mole
 H     -2.1009682973     4.9734581067    -1.1516032603
 F     -2.4938079256     4.4427665721    -1.7879463450
 H     -1.5228518744     5.2314192502     1.0015507219
 F     -1.4501677600     5.7092240908     0.2222506809
          4
Energy: -6.326807774425731 Kcal/mole
 H     -1.9973347821     4.8476812406    -1.1525636875
 F     -2.4821049077     4.4739208650    -1.8353448434
 H     -2.0419356702     6.1543812515     0.6677515043
 F     -1.4081587049     5.6712170666     0.2141347842
          4
Energy: -6.3248900004013535 Kcal/mole
 H     -2.0078795129     4.8802314429    -1.1921478443
 F     -2.5061565915     4.5083079651    -1.8661522060
 H     -2.0808064885     6.0852644701     0.6960029325
 F     -1.4251266695     5.6906235487     0.1907985006
          4
Energy: -6.326145465804359 Kcal/mole
 H     -2.0416415842     4.8172446277    -1.1516622258
 F     -2.5114952719     4.5028847667    -1.8736763461
 H     -1.9705125598     6.3252173082     0.5126515439
 F     -1.4356382655     5.6461748181     0.2065473362
          4
Energy: -6.327267153945343 Kcal/mole
 H     -2.0811342840     4.8607363749    -1.1471429214
 F     -2.5793096007     4.5509490186    -1.8519422883
 H     -1.9736641279     6.3237789871     0.5377006176
 F     -1.4387263889     5.6602395182     0.1994019499
          4
Energy: -6.326111560724485 Kcal/mole
 H     -2.0405894995     4.9075639409    -1.2112966935
 F     -2.5528178168     4.5962857669    -1.9052830402
 H     -1.9564346631     6.1371330872     0.6698691156
 F     -1.3802743378     5.6334660181     0.1646486062
          4
Energy: -6.327441366029859 Kcal/mole
 H     -2.0157464512     4.9327798671    -1.2548613878
 F     -2.5173528009     4.6831489764    -1.9807845851
 H     -1.9048618831     6.2158509463     0.5665440726
 F     -1.3601468175     5.6011656091     0.1587004340
          4
Energy: -6.3268661331918565 Kcal/mole
 H     -2.0739321127     4.8475612334    -1.2019563808
 F     -2.5281209401     4.6240221353    -1.9665685574
 H     -1.7313645390     6.3845751146     0.3772072762
 F     -1.4166687682     5.5440461944     0.1891468974
          4
Energy: -6.327220509397648 Kcal/mole
 H     -2.1096005468     4.8365164172    -1.1870988257
 F     -2.5899972161     4.5850903060    -1.9266209355
 H     -1.8125199839     6.3589410305     0.4225933350
 F     -1.4211233515     5.5660189974     0.1797511527
          4
Energy: -6.325205031956841 Kcal/mole
 H     -2.2882635394     4.8804921513    -1.1113203926
 F     -2.6182292605     4.5976014304    -1.9187759412
 H     -0.8024251563     6.2005468422    -0.0250756696
 F     -1.4610572093     5.6019931810     0.1958911459
          4
Energy: -6.326859261541472 Kcal/mole
 H     -2.3883393096     5.0262470635    -1.1526342210
 F     -2.6668825328     4.6622567320    -1.9468720390
 H     -0.6620373908     5.4546831048     0.2398532292
 F     -1.5671172366     5.6004675788     0.2182578621
          4
Energy: -6.32697246399249 Kcal/mole
 H     -2.3554419926     4.9105464146    -1.1159582290
 F     -2.6355393377     4.6302817030    -1.9429323331
 H     -0.7849264834     6.0115134156     0.0176590353
 F     -1.5605982542     5.5709290175     0.2300447506
          4
Energy: -6.32734346464423 Kcal/mole
 H     -2.3202761591     4.8621116929    -1.1089364166
 F     -2.6353481064     4.5759276901    -1.9211663006
 H     -0.8168461505     6.1157740626    -0.0082737838
 F     -1.5081923207     5.5537035258     0.2085353135
          4
Energy: -6.3274588844119535 Kcal/mole
 H     -2.2406816210     4.8154045808    -1.1313860386
 F     -2.6260909751     4.5752094920    -1.9280383775
 H     -1.2144452850     6.4210476709     0.0634155784
 F     -1.4732232780     5.5503403009     0.1890803156
          4
Energy: -6.326657113238241 Kcal/mole
 H     -2.3231190795     4.9340993724    -1.1604102873
 F     -2.6180290095     4.6076681233    -1.9649969967
 H     -0.6402205979     5.8390184407     0.0134527484
 F     -1.5068900950     5.5832640140     0.1695381605
          4
Energy: -6.326881592941561 Kcal/mole
 H     -2.3472447588     4.8526304510    -1.1221196095
 F     -2.6479942564     4.5386630951    -1.9295000892
 H     -0.7192652092     5.9578732259    -0.0403747533
 F     -1.5186460076     5.5643978293     0.1765502370
          4
Energy: -6.326664990347581 Kcal/mole
 H     -2.3611917987     4.9368365213    -1.1571083453
 F     -2.6589107689     4.5665018531    -1.9413944208
 H     -0.6237066125     5.8093566447    -0.0041549422
 F     -1.5124318007     5.6341512417     0.1385321508
          4
Energy: -6.326676313892619 Kcal/mole
 H     -2.3681706013     4.9075344782    -1.1314243406
 F     -2.6788036420     4.5296006077    -1.9070286879
 H     -0.5943824444     5.6079817955     0.0757017556
 F     -1.5061282209     5.5770665169     0.1687226385
          4
Energy: -6.326538911350042 Kcal/mole
 H     -2.3451165791     4.9955056702    -1.1918639838
 F     -2.6395211697     4.5302429086    -1.9251753091
 H     -0.7729506308     5.1302357055     0.3892821342
 F     -1.5219163522     5.6085563595     0.1631213506
          4
Energy: -6.326901620255455 Kcal/mole
 H     -2.3394580170     4.9937380426    -1.1872746960
 F     -2.6407961096     4.5481764408    -1.9299450219
 H     -0.7412738176     5.1372844863     0.3768119488
 F     -1.5189880651     5.5822374159     0.1817057223
          4
Energy: -6.326909645545015 Kcal/mole
 H     -2.2892931373     5.0499055565    -1.2428814702
 F     -2.6611937303     4.5586034599    -1.9219994267
 H     -1.2530990568     4.9851099300     0.7450297663
 F     -1.5254330020     5.6329494942     0.1559396872
          4
Energy: -6.327252280019309 Kcal/mole
 H     -2.2967166057     5.0352514720    -1.2319231617
 F     -2.6919512476     4.5396497773    -1.8945373315
 H     -1.2360767055     5.0165405644     0.7480359251
 F     -1.5120567091     5.6439484167     0.1388697535
          4
Energy: -6.326859374125718 Kcal/mole
 H     -2.2272626502     5.0068798762    -1.2554667943
 F     -2.6615208736     4.5439356648    -1.9172760211
 H     -1.6110075539     5.0620910465     0.9054644898
 F     -1.5274644015     5.6065523745     0.1723400775
          4
Energy: -6.326431838809128 Kcal/mole
 H     -2.1895462700     4.9860683093    -1.2649959883
 F     -2.6729774791     4.5697317102    -1.9236666968
 H     -1.9415740876     5.3728852182     0.9359239408
 F     -1.5236052461     5.6145286249     0.1563089643
          4
Energy: -6.3256915272726815 Kcal/mole
 H     -2.1791141898     4.9763859691    -1.2661561424
 F     -2.6583472697     4.5936389011    -1.9478667386
 H     -2.1323345185     5.5532422317     0.9025888307
 F     -1.5757540891     5.6138869225     0.1763454505
          4
Energy: -6.326952983842034 Kcal/mole
 H     -2.1942483331     5.0004636817    -1.2708075255
 F     -2.6745895725     4.6174948357    -1.9516130459
 H     -2.1186822380     5.5392795975     0.9190737910
 F     -1.5769101108     5.6219401897     0.1838600883
          4
Energy: -6.326399853650571 Kcal/mole
 H     -2.2455162912     5.0451887803    -1.2702013847
 F     -2.6828643216     4.6221060601    -1.9562164809
 H     -1.8618459880     5.1745825146     0.9482730264
 F     -1.5821985448     5.6097370803     0.1910895537
          4
Energy: -6.326462964890595 Kcal/mole
 H     -2.1957603950     4.9987060384    -1.2814689136
 F     -2.6946243505     4.6385889097    -1.9614243588
 H     -2.0260465256     5.3862671470     0.9286047561
 F     -1.5215421498     5.5539176150     0.1814383386
          4
Energy: -6.327694228966038 Kcal/mole
 H     -2.2671455634     5.1112289904    -1.2790997070
 F     -2.7059884592     4.6869231181    -1.9634025928
 H     -1.6147526973     5.0006933293     0.8547548597
 F     -1.5359663600     5.6032777907     0.1680426347
          4
Energy: -6.327755308840949 Kcal/mole
 H     -2.3394345192     5.1232663796    -1.2478109406
 F     -2.7320162322     4.7107380352    -1.9665521762
 H     -1.0944962000     4.8834272908     0.6064279300
 F     -1.5043046137     5.5727393110     0.1616864288
          4
Energy: -6.32744561485373 Kcal/mole
 H     -2.2729897235     5.1321359954    -1.2781520047
 F     -2.7239291089     4.7579721481    -1.9835200548
 H     -1.6326781593     4.9211872826     0.8567504250
 F     -1.5370249599     5.5413725030     0.1880877613
          4
Energy: -6.326977639978736 Kcal/mole
 H     -2.3918430606     5.1272385348    -1.2132757506
 F     -2.7176242140     4.7582319470    -1.9869615902
 H     -0.8940602771     4.9783005553     0.4351326254
 F     -1.5811144772     5.5439567316     0.2140475372
          4
Energy: -6.327736040166769 Kcal/mole
 H     -2.4163799576     5.0795816851    -1.1864412820
 F     -2.7121021130     4.7327829422    -1.9821598496
 H     -0.7882571300     5.1136475566     0.3641830608
 F     -1.6010460440     5.5183230628     0.2357271699
          4
Energy: -6.327670131802677 Kcal/mole
 H     -2.4499576496     5.0664982447    -1.1722426070
 F     -2.7388676848     4.7337697411    -1.9764265004
 H     -0.7720082428     5.2005702132     0.3126428127
 F     -1.6269828583     5.5242064134     0.2407608492
          4
Energy: -6.3269052992789625 Kcal/mole
 H     -2.4696197386     5.1079909449    -1.1814135423
 F     -2.7867918162     4.7522163384    -1.9648133780
 H     -0.8578957198     5.0288978735     0.3849141819
 F     -1.6131701678     5.5245863111     0.2276167534
          4
Energy: -6.327504488032105 Kcal/mole
 H     -2.4591404860     5.0489646126    -1.1581760330
 F     -2.7636918946     4.7041671847    -1.9514301998
 H     -0.7471940534     5.1951610625     0.2912891239
 F     -1.6049452331     5.5136678060     0.2304173903
          4
Energy: -6.326895870677674 Kcal/mole
 H     -2.4587281849     5.0650939548    -1.1660980803
 F     -2.7646210700     4.7226175443    -1.9598413959
 H     -0.7504955524     5.1934427286     0.2540229431
 F     -1.6018889661     5.5317354390     0.2143203317
          4
Energy: -6.327202499023031 Kcal/mole
 H     -2.4635297553     5.0379980136    -1.1565733493
 F     -2.7860004885     4.7025832772    -1.9467623019
 H     -0.7071407270     5.2046331872     0.2053091158
 F     -1.5763795482     5.4967055253     0.2078822776
          4
Energy: -6.3277257658951385 Kcal/mole
 H     -2.4435696302     5.1044527831    -1.2097816124
 F     -2.7774309747     4.7620156586    -1.9921897018
 H     -0.7932779556     5.0312248437     0.3043350932
 F     -1.5674450201     5.5073928789     0.1826044123
          4
Energy: -6.326912186566119 Kcal/mole
 H     -2.4260596169     5.1186076825    -1.2334000722
 F     -2.7867506258     4.7727896559    -2.0022959615
 H     -0.9011919914     4.8913305114     0.3889964890
 F     -1.5661501043     5.4876753912     0.1814091764
          4
Energy: -6.327169548744791 Kcal/mole
 H     -2.3920227642     5.1513937309    -1.2606906846
 F     -2.8196509867     4.7963055452    -1.9900297579
 H     -1.2775034247     4.7154706641     0.6314730964
 F     -1.5552075733     5.4662017329     0.1840669407
          4
Energy: -6.327421757767411 Kcal/mole
 H     -2.3791279938     5.1465293327    -1.2588530699
 F     -2.7982957615     4.7976024426    -1.9960351423
 H     -1.2622796893     4.7209331360     0.6308813064
 F     -1.5560151572     5.4659119614     0.1840983338
          4
Energy: -6.327105676910776 Kcal/mole
 H     -2.4104320382     5.1229778558    -1.2488638303
 F     -2.8248047471     4.7794756987    -1.9912858977
 H     -1.2397676971     4.7211985835     0.6254003159
 F     -1.5773700957     5.4524898883     0.1870777772
          4
Energy: -6.326856798440588 Kcal/mole
 H     -2.3942544686     5.1240660987    -1.2537056263
 F     -2.8340655619     4.7730672791    -1.9777602036
 H     -1.3920318881     4.7108069606     0.6920273685
 F     -1.5692928322     5.4530411399     0.1835433660
          4
Energy: -6.3271694992117204 Kcal/mole
 H     -2.4205763483     5.1354566601    -1.2461515380
 F     -2.8591934503     4.7849464278    -1.9711664447
 H     -1.2535694735     4.6944027938     0.6243626384
 F     -1.5537990797     5.4403876642     0.1836158214
          4
Energy: -6.327315441709288 Kcal/mole
 H     -2.3821980473     5.1291071913    -1.2590909057
 F     -2.8556335077     4.7829018706    -1.9639949706
 H     -1.4772817093     4.7092867879     0.7420306353
 F     -1.5458777093     5.4339386961     0.1843002338
          4
Energy: -6.3276255674529125 Kcal/mole
 H     -2.3754740691     5.1395645610    -1.2782002759
 F     -2.8555329860     4.8043067060    -1.9839159460
 H     -1.4337297583     4.7108528019     0.7126740069
 F     -1.5090232960     5.4324704274     0.1518818120
          4
Energy: -6.327726262192471 Kcal/mole
 H     -2.4282539590     5.1771353792    -1.2482081154
 F     -2.9024192991     4.8514554242    -1.9623431147
 H     -1.2513911832     4.6680749480     0.5809419863
 F     -1.5116447577     5.4362251639     0.1530374143
          4
Energy: -6.326986899328688 Kcal/mole
 H     -2.4589997157     5.1257881806    -1.2179038030
 F     -2.9294960588     4.7871799487    -1.9284434967
 H     -1.1901908423     4.6919351846     0.5812428700
 F     -1.5148912944     5.4349594335     0.1530214531
          4
Energy: -6.327677379895249 Kcal/mole
 H     -2.4964932755     5.1211921268    -1.1934745128
 F     -2.9380496608     4.7899669342    -1.9257359623
 H     -0.9899480545     4.7340528828     0.4183999166
 F     -1.5255137116     5.4327251869     0.1616598955
          4
Energy: -6.327873277228491 Kcal/mole
 H     -2.5322429359     5.0906632275    -1.1604800225
 F     -2.9361532239     4.7915864217    -1.9274862438
 H     -0.7643620230     4.9307989643     0.2127564367
 F     -1.5374805293     5.4222882620     0.1725688069
          4
Energy: -6.327474474730252 Kcal/mole
 H     -2.5459411539     5.0685691997    -1.1429547588
 F     -2.9351347209     4.7848255147    -1.9232796197
 H     -0.6980007749     5.0590595848     0.1199933187
 F     -1.5379015427     5.4230953441     0.1741566477
          4
Energy: -6.327568167485708 Kcal/mole
 H     -2.5577338174     5.0538266659    -1.1281188641
 F     -2.9441995026     4.8023208802    -1.9207588289
 H     -0.6511246339     5.2475986028     0.0283192776
 F     -1.5403882137     5.4130937849     0.1790197437
          4
Energy: -6.327692352241002 Kcal/mole
 H     -2.5593886311     5.0419899002    -1.1274368373
 F     -2.9515815408     4.7818161302    -1.9144459420
 H     -0.6559607230     5.2046042838     0.0562662933
 F     -1.5401316703     5.4153745341     0.1775372191
          4
Energy: -6.327820064722232 Kcal/mole
 H     -2.5426552179     4.9487620783    -1.1111357262
 F     -2.9524692097     4.7867616507    -1.9153106783
 H     -0.7049282507     5.6931941940    -0.0528289162
 F     -1.5242417772     5.3569684441     0.1850084030
          4
Energy: -6.32767640715565 Kcal/mole
 H     -2.5585466010     4.9590752421    -1.0957777739
 F     -2.9731433285     4.8076734229    -1.8995663298
 H     -0.7164627468     5.7032590908    -0.0765685425
 F     -1.5236298988     5.3564345246     0.1862677353
          4
Energy: -6.327857149793147 Kcal/mole
 H     -2.5251491282     4.9126806700    -1.1064810598
 F     -2.9749149872     4.8101345478    -1.8989985453
 H     -0.9021352738     5.9947548028    -0.0153396774
 F     -1.5137804003     5.3409713507     0.1830196855
          4
Energy: -6.327893213564835 Kcal/mole
 H     -2.5333315586     4.9124160382    -1.1024818028
 F     -2.9783347876     4.8012443065    -1.8965233460
 H     -0.8669542946     5.9489008522    -0.0157480897
 F     -1.5194977484     5.3373243622     0.1868604929
          4
Energy: -6.3278085758493035 Kcal/mole
 H     -2.5434924533     4.9267961091    -1.0990142207
 F     -2.9777957756     4.8004814770    -1.8967072932
 H     -0.8093498591     5.8682383637    -0.0458198645
 F     -1.5225535306     5.3416033208     0.1884557311
          4
Energy: -6.32770368061523 Kcal/mole
 H     -2.5497874741     4.9394351899    -1.0977210014
 F     -2.9774618393     4.7998110029    -1.8967758955
 H     -0.7678935082     5.8055121241    -0.0479036411
 F     -1.5247526942     5.3449308029     0.1885662706
          4
Energy: -6.327599874439954 Kcal/mole
 H     -2.5408434018     4.9235502557    -1.0999546838
 F     -2.9779363016     4.8006536620    -1.8966574038
 H     -0.8381916672     5.9214572086    -0.0304896670
 F     -1.5191697882     5.3479242761     0.1890957925
          4
Energy: -6.327818434955134 Kcal/mole
 H     -2.5472403552     4.9339173575    -1.0981445716
 F     -2.9775969580     4.8001037112    -1.8967534261
 H     -0.7810594966     5.8384532054    -0.0452402734
 F     -1.5222005179     5.3523274467     0.1898782781
          4
Energy: -6.327904119666243 Kcal/mole
 H     -2.5253212641     4.9005417725    -1.1054503975
 F     -2.9787597152     4.8018742089    -1.8963658689
 H     -0.9302177929     6.0159487114     0.0097059546
 F     -1.5187017594     5.3361808855     0.1899594540
          4
Energy: -6.327816604219663 Kcal/mole
 H     -2.5385427448     4.9216460182    -1.1009296687
 F     -2.9780583462     4.8007546774    -1.8966056831
 H     -0.8317937977     5.9047825158    -0.0210359427
 F     -1.5239229249     5.3420779952     0.1915902407
          4
Energy: -6.327970013163167 Kcal/mole
 H     -2.5578490056     4.9534792461    -1.0960349389
 F     -2.9770341936     4.7990659982    -1.8968653372
 H     -0.7347928863     5.7465782047    -0.0637195165
 F     -1.5310313396     5.3673581389     0.1874486886
          4
Energy: -6.327824969244432 Kcal/mole
 H     -2.5530570917     4.9434505534    -1.0966910181
 F     -2.9772883936     4.7995979972    -1.8968305338
 H     -0.7731225599     5.8177156583    -0.0641362707
 F     -1.5289980390     5.3635844614     0.1874707964
          4
Energy: -6.327883489406588 Kcal/mole
 H     -2.5616897952     4.9643226922    -1.0962023405
 F     -2.9768304486     4.7984907785    -1.8968564570
 H     -0.7089188402     5.6825211342    -0.0683598292
 F     -1.5324038980     5.3707562185     0.1876948464
          4
Energy: -6.327945971814074 Kcal/mole
 H     -2.5710959797     4.9870240575    -1.0964242555
 F     -2.9763314723     4.7972865235    -1.8968446849
 H     -0.6663602219     5.5411678978    -0.0585898127
 F     -1.5346615343     5.3782546810     0.1871765696
          4
Energy: -6.327937914747906 Kcal/mole
 H     -2.5655420743     4.9734052350    -1.0961501172
 F     -2.9766260941     4.7980089705    -1.8968592273
 H     -0.6872678876     5.6261302182    -0.0597334090
 F     -1.5335524310     5.3737476263     0.1872372348
          4
Energy: -6.327860993834349 Kcal/mole
 H     -2.5653060108     4.9747225233    -1.0952362533
 F     -2.9782884926     4.7935258937    -1.8936736342
 H     -0.6806303527     5.6034373283    -0.0589860066
 F     -1.5339045369     5.3749514316     0.1871975868
          4
Energy: -6.327926129666935 Kcal/mole
 H     -2.5672578189     4.9678556020    -1.0927061598
 F     -2.9781849537     4.7938901680    -1.8938078498
 H     -0.6942108929     5.6397715026    -0.0689056712
 F     -1.5331841206     5.3730239877     0.1877238021
          4
Energy: -6.32795761426155 Kcal/mole
 H     -2.5659331241     4.9690240640    -1.0936420322
 F     -2.9782552257     4.7938281838    -1.8937582039
 H     -0.6930103053     5.6384152400    -0.0663705275
 F     -1.5332478090     5.3730959343     0.1875893186
          4
Energy: -6.327961204682481 Kcal/mole
 H     -2.5660510633     4.9689159587    -1.0935576054
 F     -2.9782489693     4.7938339185    -1.8937626825
 H     -0.6932828436     5.6398170069    -0.0658028697
 F     -1.5332333515     5.3730215738     0.1875592056
