          4
Energy: -6.327980653090719 Kcal/mole
 H     -1.7479152061    -4.1940966296     3.4809747376
 F     -1.4513447595    -4.5840020950     2.7057917281
 H     -2.7292580408    -2.4111698621     4.4232684266
 F     -2.3896119262    -3.2139556792     4.7079866184
