          4
Energy: -6.3278418456577015 Kcal/mole
 H     -1.3633326667     4.6039913475    -1.2352490631
 F     -1.6285149349     4.1457333375    -1.9839592613
 H     -1.9589071247     5.9996595936     0.4208570362
 F     -1.1973932156     5.5621081409     0.1571634783
