          4
Energy: 0.05586540931241757 Kcal/mole
 H      1.7358618548    -3.4895163762    -2.9118946014
 F      2.1292080554    -4.3178688172    -2.9118946014
 H      4.1604589189    -3.8683415539     1.8969704375
 F      3.4620095670    -3.8683415539     1.3027840165
