          4
Energy: -6.327658003667807 Kcal/mole
 H     -2.4998337471     4.8834413021    -1.0925918877
 F     -2.9255684092     4.5405730306    -1.8288529459
 H     -0.5665121239     5.5865076183    -0.1991409868
 F     -1.4369339244     5.4974143487     0.0752989493
          4
Energy: -6.3277198892341175 Kcal/mole
 H     -2.4767192618     4.8272725934    -1.0825113958
 F     -2.9267945792     4.5435526508    -1.8293876927
 H     -0.6968749072     5.9117376180    -0.2635304059
 F     -1.4300184799     5.4801616488     0.0787146592
          4
Energy: -6.327941148005834 Kcal/mole
 H     -2.4659165518     4.8176634182    -1.0893921117
 F     -2.9213329373     4.5551883992    -1.8407853379
 H     -0.7673339416     6.0192306278    -0.2533410959
 F     -1.4262807910     5.4744593930     0.0781741398
          4
Energy: -6.327501120321472 Kcal/mole
 H     -2.4551578639     4.8198139720    -1.0967209141
 F     -2.9196377381     4.5754237133    -1.8486656247
 H     -0.7894606411     6.0445370866    -0.2510298907
 F     -1.4208894300     5.4654168919     0.0757827231
          4
Energy: -6.327657191582034 Kcal/mole
 H     -2.4763254684     4.8607291144    -1.0995043623
 F     -2.9106871051     4.5798702294    -1.8566947316
 H     -0.6293345948     5.7842620577    -0.2452553705
 F     -1.4227700640     5.4632020674     0.0837881507
          4
Energy: -6.327704059255552 Kcal/mole
 H     -2.4593245777     4.8336854425    -1.0999354784
 F     -2.9115889631     4.5813048337    -1.8566718619
 H     -0.7074069150     5.9349807151    -0.2403102867
 F     -1.4186285078     5.4552067909     0.0835258255
          4
Energy: -6.327723716826142 Kcal/mole
 H     -2.4778834301     4.8649031975    -1.1001730140
 F     -2.9106044588     4.5796488040    -1.8566592612
 H     -0.6201012284     5.7658234571    -0.2331328281
 F     -1.4290481940     5.4704003742     0.0818576620
          4
Energy: -6.327692374519984 Kcal/mole
 H     -2.4769669592     4.8543494230    -1.0968036607
 F     -2.9106530755     4.5802086573    -1.8568379976
 H     -0.6446194385     5.8130653797    -0.2467471282
 F     -1.4277475597     5.4678942993     0.0825798692
          4
Energy: -6.327621396947507 Kcal/mole
 H     -2.4587922499     4.8135802542    -1.0954814573
 F     -2.9144447922     4.5659477363    -1.8517538267
 H     -0.7728287725     6.0134737727    -0.2510514798
 F     -1.4209463508     5.4572630972     0.0828082051
          4
Energy: -6.327791048983443 Kcal/mole
 H     -2.4900853280     4.8747845396    -1.1052256269
 F     -2.9085305348     4.5637727202    -1.8595891050
 H     -0.5816668560     5.6308547953    -0.2013004505
 F     -1.4401939887     5.4783504738     0.0825350554
          4
Energy: -6.32788227846828 Kcal/mole
 H     -2.4945629971     4.8873071221    -1.1080336726
 F     -2.9082930048     4.5631084261    -1.8594401446
 H     -0.5710737442     5.5770429228    -0.1924469060
 F     -1.4407559288     5.4812050693     0.0820653953
          4
Energy: -6.327942619549788 Kcal/mole
 H     -2.4940484904     4.9344652054    -1.1305782395
 F     -2.9083202982     4.5606067988    -1.8582442075
 H     -0.5573361313     5.2908041825    -0.0552330131
 F     -1.4414846774     5.4963893730     0.0747865153
          4
Energy: -6.32795675737367 Kcal/mole
 H     -2.4945854401     4.9365697482    -1.1313576652
 F     -2.9082918143     4.5604951576    -1.8582028607
 H     -0.5598184140     5.2774923493    -0.0502200152
 F     -1.4413529981     5.4970955350     0.0745205874
          4
Energy: -6.3278126436371736 Kcal/mole
 H     -2.4915724904     4.9418235570    -1.1358320079
 F     -2.9084516443     4.5602164552    -1.8579655072
 H     -0.5714274294     5.2201582938    -0.0100800681
 F     -1.4407371666     5.5001369742     0.0723912559
          4
Energy: -6.3279375159813185 Kcal/mole
 H     -2.4915485807     4.9523683703    -1.1415228406
 F     -2.9084529127     4.5596570772    -1.8576636217
 H     -0.5832216202     5.1808321381     0.0133837656
 F     -1.4401115120     5.5022231359     0.0711465538
          4
Energy: -6.327946898236405 Kcal/mole
 H     -2.4839507532     4.9602307504    -1.1523364892
 F     -2.9024733790     4.5652343967    -1.8662732457
 H     -0.5969427094     5.1428009907     0.0460942385
 F     -1.4393836400     5.5042406004     0.0694113388
          4
Energy: -6.327430335246106 Kcal/mole
 H     -2.4804699251     4.9593806577    -1.1539180000
 F     -2.9026580289     4.5652794921    -1.8661893502
 H     -0.6018700918     5.1312305134     0.0517062207
 F     -1.4391222537     5.5048543874     0.0691136361
          4
Energy: -6.327852799099389 Kcal/mole
 H     -2.4800897799     4.9796916975    -1.1657907285
 F     -2.9026781947     4.5642020384    -1.8655595294
 H     -0.6464209859     5.0683938262     0.1118501316
 F     -1.4438745524     5.5182750597     0.0612172858
          4
Energy: -6.327832086400122 Kcal/mole
 H     -2.4762422757     4.9773974543    -1.1718797696
 F     -2.9001107530     4.5636745366    -1.8719210980
 H     -0.6564236233     5.0541010986     0.1340883346
 F     -1.4433439356     5.5190332559     0.0600376006
          4
Energy: -6.3278884152750265 Kcal/mole
 H     -2.4784101617     4.9798605947    -1.1720309609
 F     -2.8999957517     4.5635438727    -1.8719130776
 H     -0.6492426814     5.0651158500     0.1251357073
 F     -1.4437248679     5.5184489488     0.0605125168
          4
Energy: -6.327913323380642 Kcal/mole
 H     -2.4665114695     4.9880393587    -1.1843340851
 F     -2.9006269498     4.5631100082    -1.8712604253
 H     -0.7064339079     4.9936265801     0.2056470760
 F     -1.4406910055     5.5222412894     0.0562415747
          4
Energy: -6.3278595346865245 Kcal/mole
 H     -2.4601104453     4.9860083350    -1.1861815798
 F     -2.8952553533     4.5551862266    -1.8687723942
 H     -0.7434455056     4.9594714361     0.2604606965
 F     -1.4434779188     5.5184810067     0.0646242331
          4
Energy: -6.327511841961837 Kcal/mole
 H     -2.4562913707     4.9923006791    -1.1849182921
 F     -2.8912068736     4.5632153419    -1.8687481530
 H     -0.7598019828     4.9430465680     0.2703370035
 F     -1.4426102455     5.5193523080     0.0641003178
          4
Energy: -6.327868216385639 Kcal/mole
 H     -2.4505381794     4.9962093271    -1.1910965319
 F     -2.8915120671     4.5630079972    -1.8684204117
 H     -0.7904594855     4.9053037823     0.3106568157
 F     -1.4391714061     5.5067349748     0.0691151738
          4
Energy: -6.327495064733569 Kcal/mole
 H     -2.4345111222     4.9968474727    -1.2022355905
 F     -2.8923622654     4.5629741451    -1.8678295104
 H     -0.8373542242     4.8766802080     0.3721839330
 F     -1.4205798542     5.5114654913     0.0594787864
          4
Energy: -6.327662358953319 Kcal/mole
 H     -2.4455772712     4.9937699901    -1.1839756314
 F     -2.8976684443     4.5549915740    -1.8502909267
 H     -0.7826011176     4.9024361947     0.3095854727
 F     -1.4234843800     5.5100991957     0.0627994901
          4
Energy: -6.327964921636976 Kcal/mole
 H     -2.4519775766     4.9871835356    -1.1754202712
 F     -2.8973289229     4.5553409702    -1.8507447688
 H     -0.7970106173     4.8943982584     0.3339591917
 F     -1.4372630382     5.5007054240     0.0822501165
          4
Energy: -6.3279733426845155 Kcal/mole
 H     -2.4362852233     4.9956231078    -1.1916176281
 F     -2.8981613659     4.5548932704    -1.8498855365
 H     -0.8931973911     4.8477011323     0.4249184740
 F     -1.4321605521     5.5031825987     0.0774249368
          4
Energy: -6.327743258702185 Kcal/mole
 H     -2.4455373070     4.9873985244    -1.1798525563
 F     -2.8976705643     4.5553295655    -1.8505096463
 H     -0.8213399599     4.8848653011     0.3688992452
 F     -1.4359724228     5.5012111254     0.0803966274
          4
Energy: -6.32775761639931 Kcal/mole
 H     -2.4426895108     4.9928196911    -1.1853179016
 F     -2.8978216333     4.5550419852    -1.8502197224
 H     -0.8512149000     4.8691853415     0.3956626470
 F     -1.4343876262     5.5020429110     0.0789768908
          4
Energy: -6.3279451404888505 Kcal/mole
 H     -2.4304675072     4.9967754247    -1.1965185063
 F     -2.8984699823     4.5548321426    -1.8496255562
 H     -0.9341989975     4.8375745707     0.4643514624
 F     -1.4299855116     5.5037197894     0.0753331079
          4
Energy: -6.327768673305627 Kcal/mole
 H     -2.4009527330     4.9987716487    -1.2201756452
 F     -2.9000356729     4.5547262476    -1.8483705997
 H     -1.1015055454     4.8329007233     0.6049155100
 F     -1.4211102859     5.5039677262     0.0678765100
          4
Energy: -6.327879185470863 Kcal/mole
 H     -2.3948749323     4.9987712523    -1.2250549192
 F     -2.9003580862     4.5547262686    -1.8481117654
 H     -1.1573845934     4.8360822245     0.6380014689
 F     -1.4181460315     5.5037989549     0.0661213763
          4
Energy: -6.327801741026178 Kcal/mole
 H     -2.4036803053     4.9958140093    -1.2159465899
 F     -2.8998909815     4.5548831435    -1.8485949413
 H     -1.0747366776     4.8285851398     0.5823730875
 F     -1.4225303125     5.5041966579     0.0690723334
          4
Energy: -6.327492263355225 Kcal/mole
 H     -2.3739816735     4.9934787971    -1.2387855415
 F     -2.9014664253     4.5550070211    -1.8473833877
 H     -1.2788881712     4.8593357277     0.7026196578
 F     -1.4117005475     5.5025654103     0.0626935307
          4
Energy: -6.327812836135365 Kcal/mole
 H     -2.3855635134     4.9933809847    -1.2288778259
 F     -2.9008520355     4.5550122098    -1.8479089691
 H     -1.1979277526     4.8519308891     0.6721729168
 F     -1.4159953106     5.5029582198     0.0643086600
          4
Energy: -6.3277693209331005 Kcal/mole
 H     -2.3744576760     4.9887841745    -1.2350221978
 F     -2.9014411745     4.5552560600    -1.8475830243
 H     -1.2683527110     4.8748912757     0.7156390586
 F     -1.4122594293     5.5017402244     0.0620028816
          4
Energy: -6.327670761769241 Kcal/mole
 H     -2.3585424085     4.9889899324    -1.2432104442
 F     -2.8951267467     4.5600305470    -1.8506312979
 H     -1.3479659898     4.8985552248     0.7493869490
 F     -1.4080361288     5.5004849066     0.0602126340
          4
Energy: -6.327831346560913 Kcal/mole
 H     -2.3557734947     4.9905597578    -1.2467849161
 F     -2.8952736312     4.5599472714    -1.8504416804
 H     -1.3601147555     4.9015182547     0.7529048746
 F     -1.4073916649     5.5003277247     0.0600260162
          4
Energy: -6.327748075938587 Kcal/mole
 H     -2.3434640571     4.9815092217    -1.2515534383
 F     -2.8959266184     4.5604273814    -1.8501887214
 H     -1.4309896413     4.9512282837     0.7937398061
 F     -1.4036319160     5.4976907225     0.0578598174
          4
Energy: -6.327947391447424 Kcal/mole
 H     -2.3426044641     4.9818923405    -1.2555097098
 F     -2.8992651659     4.5627052610    -1.8515802220
 H     -1.4408070781     4.9493409113     0.7937475672
 F     -1.3994238703     5.4947614482     0.0577496948
          4
Energy: -6.3278810577005515 Kcal/mole
 H     -2.3322870943     4.9726549871    -1.2588278867
 F     -2.8998124785     4.5631952812    -1.8514042004
 H     -1.4991590884     4.9945828984     0.8196149088
 F     -1.3963284310     5.4923614653     0.0563774921
          4
Energy: -6.327789829373785 Kcal/mole
 H     -2.3387841145     4.9814376864    -1.2566098360
 F     -2.9032508128     4.5697023015    -1.8505292912
 H     -1.5378130933     5.0164055636     0.8332840402
 F     -1.4115144885     5.4984897439     0.0635227100
          4
Energy: -6.327650399600316 Kcal/mole
 H     -2.3322924099     4.9764283633    -1.2593732703
 F     -2.9035951828     4.5699680345    -1.8503826974
 H     -1.5816618781     5.0456689645     0.8424580860
 F     -1.4091884118     5.4969373881     0.0630360480
          4
Energy: -6.32790540143867 Kcal/mole
 H     -2.3273656946     4.9784601941    -1.2655283446
 F     -2.8924562353     4.5771148437    -1.8659312015
 H     -1.5632202299     5.0423405939     0.8443721668
 F     -1.4101666986     5.4971139505     0.0629345105
          4
Energy: -6.327859324173403 Kcal/mole
 H     -2.3263674258     4.9788432173    -1.2667261975
 F     -2.8925091912     4.5770945252    -1.8658676582
 H     -1.5764848551     5.0516632921     0.8470178391
 F     -1.4094630409     5.4966194029     0.0627941637
          4
Energy: -6.327905576624346 Kcal/mole
 H     -2.3136164613     4.9681730884    -1.2718864398
 F     -2.8931856004     4.5776605509    -1.8655939192
 H     -1.6354015092     5.1036328239     0.8597047034
 F     -1.4063376485     5.4938625393     0.0621211548
          4
Energy: -6.327836160774893 Kcal/mole
 H     -2.3113334670     4.9661763392    -1.2728106166
 F     -2.8933067079     4.5777664738    -1.8655448938
 H     -1.6504476855     5.1235325954     0.8626537008
 F     -1.4022885501     5.4884082090     0.0588055620
          4
Energy: -6.3279282138068425 Kcal/mole
 H     -2.2885182335     4.9304567587    -1.2734012039
 F     -2.8945170034     4.5796613150    -1.8655135645
 H     -1.7868458525     5.3308550753     0.8742241892
 F     -1.3950529425     5.4774102305     0.0581917744
          4
Energy: -6.327952999894933 Kcal/mole
 H     -2.2977548143     4.9472334398    -1.2742140369
 F     -2.8940270241     4.5787713509    -1.8654704456
 H     -1.7261954471     5.2219439833     0.8737567689
 F     -1.3982703064     5.4831877122     0.0582165699
          4
Energy: -6.327908789109017 Kcal/mole
 H     -2.3115652184     4.9674760490    -1.2734366493
 F     -2.8932944141     4.5776975272    -1.8655116842
 H     -1.6424360770     5.1078317156     0.8577811289
 F     -1.4027135474     5.4892411044     0.0590640407
          4
Energy: -6.3278289683348135 Kcal/mole
 H     -2.3292663091     4.9855926852    -1.2679394531
 F     -2.8962177923     4.5865048225    -1.8680926782
 H     -1.5596360300     5.0335907434     0.8387895557
 F     -1.4071058986     5.4931794164     0.0600714998
          4
Energy: -6.327932819917294 Kcal/mole
 H     -2.3349713644     4.9929813259    -1.2675398759
 F     -2.8959151523     4.5861128722    -1.8681138748
 H     -1.5106559659     4.9849651136     0.8161168981
 F     -1.4097041778     5.4957588937     0.0612742319
          4
Energy: -6.327787383142891 Kcal/mole
 H     -2.3445294838     4.9967895955    -1.2644481404
 F     -2.9004728011     4.5909502272    -1.8703445301
 H     -1.4665337348     4.9596611689     0.8029697382
 F     -1.4120447602     5.4971012095     0.0619716583
          4
Energy: -6.327911196396087 Kcal/mole
 H     -2.3534501205     5.0048725244    -1.2618090240
 F     -2.8999995819     4.5905214465    -1.8704845291
 H     -1.4259964315     4.9258533278     0.7790435075
 F     -1.4141951705     5.4988946373     0.0632408896
          4
Energy: -6.327904183307965 Kcal/mole
 H     -2.3477534927     4.9997238149    -1.2634726643
 F     -2.9003017749     4.5907945737    -1.8703962768
 H     -1.4595346313     4.9535426990     0.7989739828
 F     -1.4124160465     5.4974257802     0.0621836239
          4
Energy: -6.327908703154719 Kcal/mole
 H     -2.3527861883     5.0047041697    -1.2622911911
 F     -2.9000348020     4.5905303774    -1.8704589513
 H     -1.4472288373     4.9400851134     0.7853390260
 F     -1.4201523325     5.5049604843     0.0634860783
          4
Energy: -6.32790640708464 Kcal/mole
 H     -2.3416285570     4.9972922723    -1.2674620278
 F     -2.9006266886     4.5909235614    -1.8701846503
 H     -1.5235980621     5.0010297735     0.8222108501
 F     -1.4161011216     5.5017275109     0.0615301132
          4
Energy: -6.3278801795160575 Kcal/mole
 H     -2.3382039481     4.9957264895    -1.2695988896
 F     -2.9008083562     4.5910066226    -1.8700712947
 H     -1.5334452725     4.9998925066     0.8199992996
 F     -1.4155787498     5.5017878403     0.0616474309
          4
Energy: -6.327802034744479 Kcal/mole
 H     -2.3432208748     5.0006513803    -1.2682626404
 F     -2.9005422198     4.5907453685    -1.8701421797
 H     -1.4932267490     4.9712036412     0.8054212237
 F     -1.4177122495     5.5033097183     0.0624207641
          4
Energy: -6.327870970198887 Kcal/mole
 H     -2.3412480817     4.9965840513    -1.2673379816
 F     -2.9006468719     4.5909611309    -1.8701912307
 H     -1.5069377069     4.9892347499     0.8164904064
 F     -1.4169849149     5.5023532097     0.0618335695
          4
Energy: -6.32794007605554 Kcal/mole
 H     -2.3406637633     4.9979727718    -1.2688184631
 F     -2.9006778686     4.5908874625    -1.8701126946
 H     -1.5245753796     4.9972139078     0.8195453898
 F     -1.4160492771     5.5019299338     0.0616715097
          4
Energy: -6.327968053126995 Kcal/mole
 H     -2.3380094070     4.9942143925    -1.2687646534
 F     -2.9008186761     4.5910868358    -1.8701155490
 H     -1.5427945263     5.0152329710     0.8284255072
 F     -1.4150827935     5.5009740641     0.0612004400
          4
Energy: -6.3278954839180415 Kcal/mole
 H     -2.3358980821     4.9917566500    -1.2691023549
 F     -2.9009306770     4.5912172134    -1.8700976348
 H     -1.5436944203     5.0205868709     0.8316380319
 F     -1.4150350562     5.5006900521     0.0610300230
          4
Energy: -6.3279046115331425 Kcal/mole
 H     -2.3234373931     4.9824077340    -1.2748280560
 F     -2.9015916878     4.5917131518    -1.8697938995
 H     -1.6268298422     5.0868838647     0.8510784775
 F     -1.4106249142     5.4971731498     0.0599987523
          4
Energy: -6.327934893210795 Kcal/mole
 H     -2.3298450836     4.9851696730    -1.2704749540
 F     -2.9012517746     4.5915666373    -1.8700248216
 H     -1.5921083559     5.0644729555     0.8478008441
 F     -1.4124668088     5.4983619967     0.0601726232
          4
Energy: -6.327945846524528 Kcal/mole
 H     -2.3205545422     4.9778288670    -1.2746485937
 F     -2.9017446163     4.5919560501    -1.8698034196
 H     -1.6486760470     5.1200091351     0.8611722876
 F     -1.4094660235     5.4954159307     0.0594632990
          4
Energy: -6.327790569676779 Kcal/mole
 H     -2.3126799456     4.9669898944    -1.2754702876
 F     -2.9021623455     4.5925310325    -1.8697598306
 H     -1.6977542608     5.1701939389     0.8667714863
 F     -1.4068625377     5.4927537429     0.0591662744
          4
Energy: -6.32781735891308 Kcal/mole
 H     -2.3100501474     4.9671240739    -1.2781759887
 F     -2.9023018502     4.5925239146    -1.8696162995
 H     -1.7132343091     5.1883566536     0.8680775475
 F     -1.4060413569     5.4917902528     0.0590969909
          4
Energy: -6.32796492227817 Kcal/mole
 H     -2.2968607515     4.9447252486    -1.2771941627
 F     -2.8961987374     4.5861205480    -1.8714042664
 H     -1.7655553435     5.2819056095     0.8757820719
 F     -1.4032658469     5.4868276969     0.0586882837
          4
Energy: -6.327923681951461 Kcal/mole
 H     -2.2975433544     4.9433210048    -1.2756624497
 F     -2.8961625269     4.5861950399    -1.8714855203
 H     -1.7729141154     5.2862554138     0.8786558994
 F     -1.4045481425     5.4836599546     0.0624286288
          4
Energy: -6.32784930297953 Kcal/mole
 H     -2.2939306774     4.9364222815    -1.2752108764
 F     -2.8963541711     4.5865610013    -1.8715094752
 H     -1.8003945329     5.3329429258     0.8756462150
 F     -1.4030903698     5.4811832900     0.0625882856
          4
Energy: -6.327877641126577 Kcal/mole
 H     -2.3040339234     4.9538898587    -1.2756121472
 F     -2.8958182172     4.5856343867    -1.8714881887
 H     -1.7311467225     5.2155008124     0.8760345327
 F     -1.4067638061     5.4874133227     0.0625676863
          4
Energy: -6.327884624544083 Kcal/mole
 H     -2.3047560209     4.9574014028    -1.2770784227
 F     -2.8957799116     4.5854481074    -1.8714104062
 H     -1.7221244119     5.2077186992     0.8769386286
 F     -1.4072424189     5.4878261458     0.0625197261
          4
Energy: -6.32785970706567 Kcal/mole
 H     -2.3063592090     4.9557761480    -1.2744776274
 F     -2.8956948662     4.5855343234    -1.8715483723
 H     -1.7240455262     5.2138466293     0.8782756535
 F     -1.4071405082     5.4875010733     0.0624488000
          4
Energy: -6.327920245353255 Kcal/mole
 H     -2.3134733962     4.9685916977    -1.2755930515
 F     -2.8953174750     4.5848544881    -1.8714892017
 H     -1.6681145899     5.1351079373     0.8674951401
 F     -1.4101075151     5.4916779790     0.0630206813
          4
Energy: -6.3278959755649 Kcal/mole
 H     -2.3052500533     4.9638862008    -1.2761084998
 F     -2.8907778510     4.5869782689    -1.8727546335
 H     -1.7022717282     5.1652070856     0.8685241400
 F     -1.4082955579     5.4900812887     0.0629660952
          4
Energy: -6.327971049621738 Kcal/mole
 H     -2.3028706988     4.9610898170    -1.2766892035
 F     -2.8909040703     4.5871266106    -1.8727238286
 H     -1.7146661174     5.1854226895     0.8717793171
 F     -1.4076380642     5.4890088976     0.0627934156
          4
Energy: -6.327977419851152 Kcal/mole
 H     -2.3087155066     4.9674726682    -1.2749962757
 F     -2.8905940168     4.5867880151    -1.8728136345
 H     -1.6798918380     5.1469977734     0.8688035473
 F     -1.4094827593     5.4910472506     0.0629512733
          4
Energy: -6.327954563665571 Kcal/mole
 H     -2.3015893903     4.9590621242    -1.2766861817
 F     -2.8909720408     4.5872341750    -1.8727239889
 H     -1.7194753227     5.1996642108     0.8751440725
 F     -1.4073829469     5.4882534178     0.0626149231
          4
Energy: -6.327969150461399 Kcal/mole
 H     -2.2941425290     4.9483902180    -1.2775426516
 F     -2.8913670795     4.5878002950    -1.8726785551
 H     -1.7655731957     5.2664529988     0.8768899374
 F     -1.4049375613     5.4847104270     0.0625223090
          4
Energy: -6.327958745840874 Kcal/mole
 H     -2.2995722366     4.9550121895    -1.2761726468
 F     -2.8910790461     4.5874490147    -1.8727512307
 H     -1.7401957779     5.2282173030     0.8765189188
 F     -1.4062837747     5.4867387423     0.0625419907
          4
Energy: -6.327933493382147 Kcal/mole
 H     -2.3000057967     4.9531870826    -1.2746235139
 F     -2.8910560467     4.5875458324    -1.8728334086
 H     -1.7402216642     5.2315163885     0.8788764051
 F     -1.4070074156     5.4865489992     0.0635141346
          4
Energy: -6.327937230206487 Kcal/mole
 H     -2.2997041665     4.9549285619    -1.2759903647
 F     -2.8910720475     4.5874534510    -1.8727609003
 H     -1.7317977225     5.2132751586     0.8763486258
 F     -1.4074542862     5.4875166543     0.0636482275
          4
Energy: -6.327979989461028 Kcal/mole
 H     -2.2918913821     4.9437741890    -1.2770284381
 F     -2.8914864977     4.5880451647    -1.8727058329
 H     -1.7818185340     5.2931114190     0.8775745683
 F     -1.4048007978     5.4832815252     0.0635831941
          4
Energy: -6.327962894113853 Kcal/mole
 H     -2.2942917517     4.9476981827    -1.2774495920
 F     -2.8903269185     4.5863147757    -1.8732961436
 H     -1.7670340180     5.2688599148     0.8782344382
 F     -1.4055850822     5.4845680114     0.0635481895
          4
Energy: -6.327973372730128 Kcal/mole
 H     -2.2948690709     4.9474736451    -1.2767366952
 F     -2.8902962930     4.5863266869    -1.8733339612
 H     -1.7597729110     5.2583954994     0.8785803144
 F     -1.4059702671     5.4851231245     0.0635298416
          4
Energy: -6.327975369350554 Kcal/mole
 H     -2.2994712154     4.9558237136    -1.2772787312
 F     -2.8900521599     4.5858837351    -1.8733052074
 H     -1.7341769990     5.2168245541     0.8765849312
 F     -1.4073280711     5.4873283671     0.0636356920
          4
Energy: -6.327968151149264 Kcal/mole
 H     -2.3003566610     4.9572140591    -1.2772667313
 F     -2.8900051890     4.5858099805    -1.8733058440
 H     -1.7238812872     5.2022894026     0.8756818584
 F     -1.4078742348     5.4880994233     0.0636835980
          4
Energy: -6.327992486702044 Kcal/mole
 H     -2.2995762646     4.9552081297    -1.2767931158
 F     -2.8900465873     4.5859163904    -1.8733309682
 H     -1.7340707654     5.2160936552     0.8763840613
 F     -1.4073337066     5.4873671396     0.0636463477
          4
Energy: -6.327990861220087 Kcal/mole
 H     -2.2957989501     4.9497732605    -1.2772063243
 F     -2.8902469651     4.5862046976    -1.8733090484
 H     -1.7564708731     5.2501804453     0.8776772858
 F     -1.4061454326     5.4855589141     0.0635777452
          4
Energy: -6.327979893541965 Kcal/mole
 H     -2.2991150997     4.9539747514    -1.2764876697
 F     -2.8900710510     4.5859818182    -1.8733471714
 H     -1.7377486677     5.2253580569     0.8779317991
 F     -1.4071386023     5.4868756844     0.0635642438
          4
Energy: -6.327972687845033 Kcal/mole
 H     -2.2984419713     4.9539281449    -1.2771261662
 F     -2.8901067589     4.5859842906    -1.8733133006
 H     -1.7361060984     5.2198942552     0.8768222047
 F     -1.4072257369     5.4871655265     0.0636231052
          4
Energy: -6.327991733436079 Kcal/mole
 H     -2.2983050039     4.9529403320    -1.2766535300
 F     -2.8901140247     4.5860366918    -1.8733383729
 H     -1.7431024743     5.2303021209     0.8773114070
 F     -1.4068545953     5.4866134133     0.0635971542
          4
Energy: -6.327992790046949 Kcal/mole
 H     -2.2981005706     4.9528107600    -1.2767766836
 F     -2.8901248694     4.5860435653    -1.8733318399
 H     -1.7432655475     5.2303959535     0.8772735533
 F     -1.4068459446     5.4866084357     0.0635991622
          4
Energy: -6.327993308372697 Kcal/mole
 H     -2.2977697627     4.9527651979    -1.2767923558
 F     -2.8898064909     4.5860018870    -1.8733375648
 H     -1.7437917960     5.2306654549     0.8771405959
 F     -1.4068180284     5.4865941393     0.0636062153
          4
Energy: -6.3279933083809965 Kcal/mole
 H     -2.2977701930     4.9527649855    -1.2767917982
 F     -2.8898064680     4.5860018983    -1.8733375944
 H     -1.7437913051     5.2306656020     0.8771408455
 F     -1.4068180544     5.4865941314     0.0636062021
          4
Energy: -6.3279933083817355 Kcal/mole
 H     -2.2977701930     4.9527649855    -1.2767917982
 F     -2.8898064680     4.5860018983    -1.8733375944
 H     -1.7437909235     5.2306656020     0.8771410036
 F     -1.4068180746     5.4865941314     0.0636061937
          4
Energy: -6.327993308381906 Kcal/mole
 H     -2.2977703468     4.9527649855    -1.2767916455
 F     -2.8898064599     4.5860018983    -1.8733376025
 H     -1.7437908496     5.2306658065     0.8771410985
 F     -1.4068180786     5.4865941206     0.0636061886
          4
Energy: -6.327993308382247 Kcal/mole
 H     -2.2977703468     4.9527649855    -1.2767916455
 F     -2.8898064599     4.5860018983    -1.8733376025
 H     -1.7437904883     5.2306653308     0.8771410985
 F     -1.4068180977     5.4865941458     0.0636061886
          4
Energy: -6.327993308382247 Kcal/mole
 H     -2.2977703468     4.9527649855    -1.2767916455
 F     -2.8898064599     4.5860018983    -1.8733376025
 H     -1.7437904883     5.2306653308     0.8771410985
 F     -1.4068180977     5.4865941458     0.0636061886
          4
Energy: -6.327993308382247 Kcal/mole
 H     -2.2977703468     4.9527649855    -1.2767916455
 F     -2.8898064599     4.5860018983    -1.8733376025
 H     -1.7437904883     5.2306653308     0.8771410985
 F     -1.4068180977     5.4865941458     0.0636061886
          4
Energy: -6.327993308382304 Kcal/mole
 H     -2.2977703468     4.9527649855    -1.2767916455
 F     -2.8898064599     4.5860018983    -1.8733376025
 H     -1.7437904883     5.2306653373     0.8771411006
 F     -1.4068180977     5.4865941455     0.0636061885
          4
Energy: -6.327993308382304 Kcal/mole
 H     -2.2977703336     4.9527649640    -1.2767916455
 F     -2.8898064606     4.5860018994    -1.8733376025
 H     -1.7437904883     5.2306653373     0.8771411006
 F     -1.4068180977     5.4865941455     0.0636061885
          4
Energy: -6.327993308382418 Kcal/mole
 H     -2.2977703336     4.9527649314    -1.2767916255
 F     -2.8898064606     4.5860019011    -1.8733376035
 H     -1.7437905234     5.2306656026     0.8771411695
 F     -1.4068180959     5.4865941314     0.0636061849
          4
Energy: -6.327993308382418 Kcal/mole
 H     -2.2977703336     4.9527649314    -1.2767916255
 F     -2.8898064606     4.5860019011    -1.8733376035
 H     -1.7437905234     5.2306656026     0.8771411695
 F     -1.4068180959     5.4865941314     0.0636061849
          4
Energy: -6.327993308382418 Kcal/mole
 H     -2.2977703336     4.9527649314    -1.2767916255
 F     -2.8898064606     4.5860019011    -1.8733376035
 H     -1.7437905234     5.2306656026     0.8771411695
 F     -1.4068180959     5.4865941314     0.0636061849
          4
Energy: -6.327993308382418 Kcal/mole
 H     -2.2977703336     4.9527649314    -1.2767916255
 F     -2.8898064606     4.5860019011    -1.8733376035
 H     -1.7437905234     5.2306656026     0.8771411695
 F     -1.4068180959     5.4865941314     0.0636061849
          4
Energy: -6.327993308382418 Kcal/mole
 H     -2.2977703336     4.9527649314    -1.2767916255
 F     -2.8898064606     4.5860019011    -1.8733376035
 H     -1.7437905234     5.2306656026     0.8771411695
 F     -1.4068180959     5.4865941314     0.0636061849
          4
Energy: -6.327993308382418 Kcal/mole
 H     -2.2977703336     4.9527649314    -1.2767916255
 F     -2.8898064606     4.5860019011    -1.8733376035
 H     -1.7437905234     5.2306656026     0.8771411695
 F     -1.4068180959     5.4865941314     0.0636061849
          4
Energy: -6.327993308382418 Kcal/mole
 H     -2.2977703336     4.9527649314    -1.2767916255
 F     -2.8898064606     4.5860019011    -1.8733376035
 H     -1.7437905234     5.2306656026     0.8771411695
 F     -1.4068180959     5.4865941314     0.0636061849
          4
Energy: -6.327993308382418 Kcal/mole
 H     -2.2977703336     4.9527649314    -1.2767916255