          4
Energy: -6.261910390077958 Kcal/mole
 H     -3.8416038006     2.4063055307    -3.6336998369
 F     -4.1886697788     2.7178152159    -2.8441455811
 H     -2.2789383767     2.7667891894    -5.2530407302
 F     -2.9839611886     2.2089268681    -5.0724265968
          4
Energy: -6.297301111397644 Kcal/mole
 H     -6.4629848504    -0.7858504073    -5.2108478218
 F     -7.1532091491    -0.7299415159    -5.8119747746
 H     -4.8104101251     0.3090425330    -4.1134211848
 F     -5.1953639126    -0.5230387499    -4.0949734173
          4
Energy: -6.285561226591426 Kcal/mole
 H     -5.2092007752    -2.7265624351    -5.0228265381
 F     -4.6058154307    -2.9308749212    -4.3632270125
 H     -7.0637011905    -3.3415867599    -6.0952367403
 F     -6.4397235824    -2.6800000760    -6.2128972868
          4
Energy: -6.279645308684849 Kcal/mole
 H     -3.7310863530    -0.8769025833    -4.5506884623
 F     -3.4466170916    -0.2260172110    -3.9707621984
 H     -3.3699988811    -2.9665009422    -5.5767639476
 F     -3.9544541261    -2.2601894622    -5.5561445437
          4
Energy: -6.2686118561130115 Kcal/mole
 H      3.9007494535    -1.5805302092    -2.6584919757
 F      4.5820928796    -2.1202498135    -2.9506612494
 H      2.3913034541    -0.1201304534    -3.2427308847
 F      2.5777264968    -0.5219015551    -2.4397891489
          4
Energy: -6.304138949758851 Kcal/mole
 H      6.4705359684    -2.9316808607    -5.6657295601
 F      7.2472280533    -2.7877612023    -6.1314822169
 H      5.2667922268    -4.2920224858    -4.3644480581
 F      5.1469978910    -3.4911305585    -4.7946926837
          4
Energy: -6.219700355318707 Kcal/mole
 H      6.8902468285    -0.5392494655    -4.2060369371
 F      7.2652893787    -0.9994456450    -3.5071438394
 H      7.2627493956     0.3261819548    -6.2002387461
 F      6.5665788474     0.2452237919    -5.6089001429
          4
Energy: -6.2881579524753874 Kcal/mole
 H      3.3433740543     1.2156762654    -2.9652741601
 F      3.1508808387     2.0614653057    -2.6678245656
 H      4.9192351384    -0.2388879079    -3.3167409033
 F      4.0043131516    -0.2679360621    -3.3711740080
          4
Energy: -6.280371404902098 Kcal/mole
 H      3.3436611245    -0.9317610276     0.1952665499
 F      3.3057980525    -1.6367696305    -0.3898986042
 H      4.4162865186     0.2532784611     1.7445298113
 F      3.5798206899     0.2456204819     1.3688234462
          4
Energy: -6.227679243509613 Kcal/mole
 H      0.5658452217     1.2759985616    -0.3845734087
 F      0.4433768861     0.4214822536    -0.6939152684
 H      2.0426285455     3.0792967664    -0.1350081222
 F      1.1587355225     2.8514757550    -0.0471462384
          4
Energy: -6.261484714019787 Kcal/mole
 H      1.1180083278     3.0986999668     1.7283632091
 F      2.0250365938     3.0196076141     1.8376020500
 H     -0.5839744019     3.1740964008     0.2442017876
 F     -0.4841786358     3.3356791386     1.1413198534
          4
Energy: -6.279596992103791 Kcal/mole
 H      2.2119360978     4.4413547495     6.7999593867
 F      1.3145483428     4.3024151175     6.9275524737
 H      3.6281102739     5.5072778717     5.4712887733
 F      3.7254850403     5.0283605265     6.2472045751
          4
Energy: -6.253554773250471 Kcal/mole
 H      0.3738857853     3.9254809987     6.3392783583
 F      0.7618568233     3.5493809691     7.0801671768
 H     -1.1577754902     5.2068929803     5.3835310150
 F     -0.4031466232     4.7618893200     5.1126140251
          4
Energy: -6.307226600435456 Kcal/mole
 H      2.5120326695     4.2114617419     5.5155389308
 F      2.3688041555     4.9878351247     5.0490424535
 H      1.5653991037     2.8919540198     7.0043461274
 F      2.3497560220     2.8636668368     6.5301383037
          4
Energy: -6.278314160063985 Kcal/mole
 H     -1.9136758270     3.4099158700     6.2892812646
 F     -1.6971549573     2.9151669004     7.0303825870
 H     -3.3796510954     3.7902023335     4.7059138413
 F     -2.5952314782     4.1737875325     4.9859803678
          4
Energy: -6.317309445988144 Kcal/mole
 H     -3.4965321871     3.3750726326     6.3593887373
 F     -3.6673495861     2.8092702488     7.0605150303
 H     -1.8679873485     4.2623967765     5.1398881991
 F     -2.7833952156     4.3142735058     5.1248468607
          4
Energy: -6.225014234306229 Kcal/mole
 H     -2.4737326496     2.6620110445     3.4410759623
 F     -1.7744511669     3.1549861592     3.1111215043
 H     -4.4099528389     1.3537727293     3.2152444318
 F     -3.8082265975     1.6133299568     3.8566838881
          4
Energy: -6.267985304340755 Kcal/mole
 H     -6.8798318980     6.8357226722     4.7137397659
 F     -7.1776185038     7.1600119863     3.9093464677
 H     -5.5002236090     5.5747456395     6.0071417738
 F     -6.2243348901     6.1244043605     6.1272548168
          4
Energy: -6.230305221145272 Kcal/mole
 H     -6.9407414429     6.3513938715     6.4476909558
 F     -7.1754559978     6.8514720019     7.1796198739
 H     -7.2415620053     4.4297566897     5.6179056831
 F     -6.8308004163     5.1704609512     5.2664499760
          4
Energy: -6.27987539056511 Kcal/mole
 H     -4.6445313723     5.6321796498     6.1903004512
 F     -3.7743939800     5.6043394340     6.4783539894
 H     -5.9609751511     5.4621693158     4.3622633565
 F     -6.0521643161     5.5949570562     5.2650041566
          4
Energy: -6.274625119738062 Kcal/mole
 H     -3.2566889567     5.2362252014     4.3692076128
 F     -3.0129252328     5.5804002019     5.1834629880
 H     -5.0203141413     4.8876762729     2.9058480927
 F     -4.1105481753     4.7765783330     2.9353800200
          4
Energy: -6.269707177567739 Kcal/mole
 H     -4.1030201796     1.6963075051     2.4314636339
 F     -3.7145688379     0.8706101380     2.5221190984
 H     -4.2660730054     3.7627152177     1.4148736304
 F     -4.6355106432     3.2388670324     2.0706082646
          4
Energy: -6.19646112548412 Kcal/mole
 H     -6.6035622538    -1.3756866393     4.5889125046
 F     -7.0273225198    -0.5660692090     4.5125197469
 H     -5.9117349595    -3.2414035122     3.4327967377
 F     -6.0297172783    -2.9897308092     4.3066560073
          4
Energy: -6.318981816349265 Kcal/mole
 H     -6.3166571293     0.0662286195     5.1345467972
 F     -6.6121716855     0.2005337506     4.2769208421
 H     -4.6437428537    -0.7843149828     6.3866682162
 F     -5.4427234240    -0.3605277191     6.5380729831
          4
Energy: -6.215123130067411 Kcal/mole
 H     -6.6041856643    -2.9528517480     2.3173496794
 F     -7.0680530952    -2.1847715897     2.1282230632
 H     -4.6411820888    -3.5378304913     2.6701895544
 F     -5.3921272318    -4.0607965412     2.6112242867
          4
Energy: -6.262165802824654 Kcal/mole
 H     -6.2976742247    -3.9514725494     2.1566666423
 F     -6.4812151076    -4.7950731543     2.4657617145
 H     -7.3214736659    -1.9867428268     1.9016422460
 F     -6.4933394685    -2.3032703742     1.6673495599
          4
Energy: -6.300637360033761 Kcal/mole
 H     -6.5361517738    -5.0517945362     3.2395764753
 F     -7.1648980467    -5.7006040610     3.0826901316
 H     -5.2626573066    -3.9346294222     4.7423908666
 F     -5.4225116752    -3.9562662127     3.8396907890
          4
Energy: -6.305581980723844 Kcal/mole
 H     -5.5263562522    -5.2644717774     3.1815457496
 F     -5.3158826714    -5.6108001717     2.3589604865
 H     -7.0778241809    -4.1976963686     4.3889037251
 F     -6.2425397030    -4.5531923498     4.5185626943
          4
Energy: -6.31603177112936 Kcal/mole
 H      0.3768180128    -4.3502947645     4.7354658527
 F      1.0784222535    -4.9316206377     4.6320215744
 H     -0.2286127764    -2.4670779912     5.6679181226
 F     -0.6606622651    -3.0914958304     5.1537930391
          4
Energy: -6.313104270599013 Kcal/mole
 H      0.2628234490    -2.2202033849     7.1496997583
 F      0.6372421346    -3.0381776775     7.3275134374
 H      0.2555823414    -0.5711864659     5.6973182107
 F     -0.1687223979    -0.7103316897     6.4982508514
          4
Energy: -6.229539357405088 Kcal/mole
 H      0.4811400202    -2.4702047876     6.5411181934
 F      0.4886241442    -3.3112722312     6.1758257857
 H     -0.6656768995    -0.7373358741     7.2070350225
 F      0.2317987708    -0.8910213854     7.0983741514
          4
Energy: -6.320808880246034 Kcal/mole
 H     -1.4009290400    -4.3633792728     5.7287354844
 F     -0.5283402367    -4.5830333302     5.9054552499
 H     -3.3018062438    -3.5418999810     6.5813067615
 F     -3.0368502710    -3.8844747085     5.7730185155
          4
Energy: -6.2626075427738215 Kcal/mole
 H     -3.1194530764    -5.9161925625     5.5369471483
 F     -3.2015875108    -6.7396956999     5.9318971672
 H     -2.4407292506    -5.0676271388     3.6165514301
 F     -2.8268561193    -4.7042151410     4.3647003198
          4
Energy: -6.310734303799961 Kcal/mole
 H     -5.1917865695    -6.0640232492     6.6086738731
 F     -4.8735094778    -5.2954359208     6.9945005332
 H     -6.1844729049    -7.0577902417     4.7912366046
 F     -5.8561074635    -7.2760371336     5.6191456764
          4
Energy: -6.321921983581149 Kcal/mole
 H     -4.5673331442    -5.5109180499     6.1623522496
 F     -4.0704972866    -6.2410024408     5.9153301599
 H     -6.2660710248    -4.1057708601     5.7229894910
 F     -5.6228278256    -4.1998317874     6.3697349808
          4
Energy: -6.301447967746526 Kcal/mole
 H     -4.6031548079    -6.5184517272     4.8282367520
 F     -5.4213241604    -6.8984640144     4.6636810707
 H     -2.3088930359    -6.7010823887     4.9961917955
 F     -2.9655567841    -6.0740008644     5.1244512347
          4
Energy: -6.315892602523604 Kcal/mole
 H     -3.2642673523    -6.8897998475     7.3626503991
 F     -4.0299800543    -7.3921308128     7.3153570664
 H     -1.7290507741    -5.6680775859     6.2460093156
 F     -1.9012102546    -5.8845932976     7.1202924847
          4
Energy: -6.302535404225921 Kcal/mole
 H     -2.8648896357    -6.6905295513     6.8613560326
 F     -3.6446703508    -7.0324456601     7.2018327732
 H     -0.6482840953    -6.5479933953     7.0716582059
 F     -1.2749072750    -6.1645573308     6.5228329375
          4
Energy: -6.30872272718193 Kcal/mole
 H     -2.2936448977    -6.0439763234     4.1601187034
 F     -2.9637894845    -5.7938358604     4.7339000045
 H     -0.2254570561    -6.8594309143     3.9223975812
 F     -0.9045202210    -6.5552651812     3.3864447615
          4
Energy: -6.282243773200605 Kcal/mole
 H     -2.2143191738    -4.8328792327     2.3635296481
 F     -2.6413629712    -4.7543252678     1.5558466226
 H     -0.1813838105    -5.1997176696     3.2573609449
 F     -1.0132363703    -4.9886992725     3.5804422889
          4
Energy: -6.298776548119804 Kcal/mole
 H     -4.3295948766    -3.9433183381     2.9827954516
 F     -4.9732427781    -4.0915527369     2.3466878019
 H     -3.6577416224    -4.4484657298     5.0842057990
 F     -3.3188756411    -3.9725116315     4.3774338816
          4
Energy: -6.300680128079307 Kcal/mole
 H     -5.2706955416    -3.4827288424     4.1235458915
 F     -6.1175519521    -3.4520839612     3.7731402533
 H     -3.0090394086    -3.1118577878     3.8567432677
 F     -3.5840878496    -3.4699173741     4.4748060664
          4
Energy: -6.272806216650508 Kcal/mole
 H     -5.0048294146    -4.1148791593     5.4562549591
 F     -5.6311441097    -4.6948475338     5.1212093097
 H     -4.1204765517    -2.7990421900     7.0556615814
 F     -3.9344572495    -3.0671736708     6.1986952295
          4
Energy: -6.299715026794104 Kcal/mole
 H     -4.3267496788    -4.5814317944     7.3314206887
 F     -5.1740303159    -4.9281275894     7.3843975489
 H     -2.4528326362    -4.3148584210     6.0316957170
 F     -2.7728217541    -4.0680927919     6.8548619753
          4
Energy: -6.2954816755375305 Kcal/mole
 H     -3.8126056316    -3.6206735274     5.7367890922
 F     -4.5988671246    -3.1817431638     5.5635205126
 H     -2.0627352406    -4.9519804786     5.0300680156
 F     -2.3979662532    -4.5450945722     5.7803699731
          4
Energy: -6.298411902283192 Kcal/mole
 H     -4.6069989451    -3.3552881290     5.1390473905
 F     -5.5128639355    -3.3665068252     4.9970200692
 H     -2.5434868117    -3.5015735294     4.3145889244
 F     -2.9402256686    -3.4252780804     5.1377938101
          4
Energy: -6.265360596128005 Kcal/mole
 H     -4.2890998506    -3.5116287685     3.3498107009
 F     -4.9902399400    -3.9481284442     2.9513642074
 H     -3.6388107724    -1.6729983381     4.5556660000
 F     -3.2964282416    -2.4757102665     4.2740336820
          4
Energy: -6.3029969841513775 Kcal/mole
 H     -2.1832391043    -3.2338229745     4.5181076099
 F     -2.4019421423    -4.0792666366     4.7978985950
 H     -2.1352293995    -0.9504746029     4.7792922889
 F     -1.8493804865    -1.5951822326     4.1931767105
          4
Energy: -6.315516851510267 Kcal/mole
 H     -3.0990307972    -2.7837234878     3.1520076514
 F     -3.1194471005    -3.6562505436     2.8706383010
 H     -3.3804401120    -1.4329021081     4.8807999484
 F     -3.1766126173    -1.3042114164     3.9960502333
          4
Energy: -6.308991135784538 Kcal/mole
 H     -2.0702477840    -2.2006774954     2.7016068052
 F     -1.6608775517    -2.6191979080     1.9958124462
 H     -4.0293902585    -1.6780070944     3.4861946407
 F     -3.1771093238    -1.5478895732     3.7985656367
          4
Energy: -6.301393056562858 Kcal/mole
 H     -1.7617888811    -1.7724718228     2.8385342330
 F     -1.1681652059    -1.8145277830     2.1408729768
 H     -2.1370689318    -1.1490176854     4.9464194535
 F     -2.6485310683    -1.5127522154     4.2778443458
          4
Energy: -6.317461607542668 Kcal/mole
 H     -1.0127499392    -1.8919941668     4.0038468323
 F     -0.3446410896    -2.3896414510     3.6206148588
 H     -2.9983544678    -0.9585316038     3.7545971524
 F     -2.3853575913    -1.0320156909     4.4326265901
          4
Energy: -6.31599584356411 Kcal/mole
 H     -1.4174684974    -2.2098828468     3.3412187330
 F     -0.7796338899    -2.4368999170     2.7227373158
 H     -2.2783535443    -0.5610148795     4.6583254666
 F     -2.4540544231    -1.4433502433     4.4808360103
          4
Energy: -6.2988289067577625 Kcal/mole
 H     -1.8249811769    -3.4054205271     3.2675478922
 F     -1.4662681886    -3.8911179879     2.5773943090
 H     -2.5162288771    -3.4351580990     5.4689852966
 F     -2.4663798213    -2.8554285015     4.7602415732
          4
Energy: -6.324710162744793 Kcal/mole
 H     -1.7976950189    -3.5165172426     3.3565718724
 F     -1.3521237590    -4.1626521763     2.8823726529
 H     -1.7921331351    -2.1448152338     5.1274851834
 F     -2.3437244078    -2.3175419625     4.4155852290
          4
Energy: -6.313779592594869 Kcal/mole
 H     -1.9850619789    -3.8313715176     3.3823563838
 F     -1.4278597817    -4.3117512670     2.8349534172
 H     -1.9936099229    -2.2779937372     4.9848873577
 F     -2.6307295034    -2.7618334387     4.5367057168
          4
Energy: -6.3244289140253045 Kcal/mole
 H     -1.8617980054    -4.1341791441     3.3935398984
 F     -1.4587378325    -4.5246196959     2.6682898226
 H     -2.9579962779    -2.3549214259     4.1953417103
 F     -2.6492292798    -3.1492920650     4.5337604282
          4
Energy: -6.32094428019883 Kcal/mole
 H     -1.9926992138    -3.8228229104     3.1044439318
 F     -1.6550167172    -4.2637870699     2.3747795285
 H     -3.4063734959    -2.2597406152     3.7557980809
 F     -2.8100899542    -2.8133389176     4.1787210733
          4
Energy: -6.323839363773061 Kcal/mole
 H     -1.7299486988    -3.9740176575     3.4453460045
 F     -1.3937748295    -4.4563058076     2.7415887524
 H     -1.9148923434    -1.9970858386     4.5140998984
 F     -2.2022104875    -2.8607122361     4.6258439345
          4
Energy: -6.326225645905993 Kcal/mole
 H     -1.3642382424    -3.8810592437     3.5984300783
 F     -1.0205832568    -4.5253378251     3.0437271304
 H     -2.9667524669    -3.3340808860     5.0511982177
 F     -2.2222395238    -2.9300681363     4.6999672744
          4
Energy: -6.324511713849802 Kcal/mole
 H     -1.4979329634    -3.9844213395     3.5326470090
 F     -1.0788426367    -4.3221341898     2.7902169929
 H     -3.0822018013    -2.5997589082     4.2366970995
 F     -2.4744076619    -3.1539970590     4.6420307354
          4
Energy: -6.325808108610545 Kcal/mole
 H     -1.7704598009    -4.2237645008     3.4921437139
 F     -1.4712231651    -4.5187508410     2.6770796091
 H     -2.5571540246    -2.5100622250     4.6863132278
 F     -2.3704842964    -3.3939094954     4.8439755735
          4
Energy: -6.326714027999628 Kcal/mole
 H     -1.8588268870    -4.2503824914     3.4684287279
 F     -1.4459869526    -4.6544038101     2.7562356624
 H     -2.0259543443    -2.4116071503     4.7400489107
 F     -2.4261098081    -3.2361806984     4.7110132651
          4
Energy: -6.327579474996696 Kcal/mole
 H     -1.7477607259    -4.1955554874     3.4817657358
 F     -1.4513529543    -4.5839247060     2.7057497675
 H     -2.7356807784    -2.4117112318     4.4295536883
 F     -2.3892712148    -3.2139269608     4.7076531998
          4
Energy: -6.327980653090719 Kcal/mole
 H     -1.7479152061    -4.1940966296     3.4809747376
 F     -1.4513447595    -4.5840020950     2.7057917281
 H     -2.7292580408    -2.4111698621     4.4232684266
 F     -2.3896119262    -3.2139556792     4.7079866184
