          4
Energy: -6.183796900322989 Kcal/mole
 H     -3.4685682820     2.0876464618     6.3276598782
 F     -2.6258788945     1.7288985909     6.3730863174
 H     -4.5001884362     3.6774868332     5.1372557959
 F     -4.8176962471     3.0959116119     5.7711706577
          4
Energy: -6.171362773364166 Kcal/mole
 H     -5.1134949590    -2.7345312525     1.5119543375
 F     -5.9525327906    -3.0052107718     1.2596903587
 H     -2.8052038549    -3.0674987847     2.0202749270
 F     -3.4935322644    -2.4700872631     2.1212327138
          4
Energy: -6.290864701617352 Kcal/mole
 H     -5.8949931250    -4.3959974126    -2.6930375170
 F     -6.7189886903    -4.1262397008    -2.3944557268
 H     -4.1150585899    -5.7974024813    -2.5414821433
 F     -4.3920352373    -5.1243115499    -3.0992648383
          4
Energy: -6.244726282906697 Kcal/mole
 H     -4.2561646937    -4.3823623647     0.7218904531
 F     -5.0482436416    -4.2025506272     1.1475284205
 H     -2.6113489564    -5.7519070401     0.1766481385
 F     -2.8756862128    -4.9065332561    -0.0607502191
          4
Energy: -6.221480181268362 Kcal/mole
 H      1.0057126511    -6.1949349760    -1.4778648084
 F      0.2847907297    -6.4708203857    -1.9728878624
 H      3.0158728558    -5.5437652787    -1.8387588717
 F      2.5769765593    -5.7400743351    -1.0579120267
          4
Energy: -6.259227032122965 Kcal/mole
 H     -0.2925443438     0.2206755180    -3.6011140366
 F      0.1282998656     0.2417548464    -2.7866603465
 H     -0.4976958242    -0.6047036897    -5.7456689976
 F     -0.8519508812     0.0686003594    -5.2337568841
          4
Energy: -6.0957893370339775 Kcal/mole
 H      3.4014869852     4.2360121622    -2.7322504418
 F      4.0156578067     4.9163965485    -2.7046771045
 H      2.6094591651     2.9935485304    -4.3883031840
 F      2.4662584423     2.9154545932    -3.4859263835
          4
Energy: -6.120345874303382 Kcal/mole
 H     -2.7122395062    -2.6223402910     2.3007532116
 F     -2.1542846805    -3.3258959594     2.4867231929
 H     -3.1948302453    -0.6219056261     2.8754790574
 F     -3.4006373557    -1.1058935873     2.1242879454
          4
Energy: -5.780734801605661 Kcal/mole
 H      0.3578592114     1.4106207825     5.4397228776
 F      0.8866584797     1.8978450363     4.8706245905
 H      0.7517046702     0.1236889259     6.8079006939
 F     -0.1114360930     0.4105613864     6.6913622270
          4
Energy: -6.290550626409527 Kcal/mole
 H     -1.3791217237    -6.6729483160     3.6070914453
 F     -0.5849142877    -7.1180620552     3.4975592221
 H     -3.3623399339    -6.6050514953     4.7648030413
 F     -2.9659367216    -6.1623282513     4.0664123036
          4
Energy: -6.237834702390501 Kcal/mole
 H      2.2284469685     0.7034296402     2.4447247053
 F      1.3438956277     0.5206948164     2.6030468759
 H      4.4438418219    -0.0070610125     2.0641117459
 F      3.9375386398     0.7313207897     2.2624508545
          4
Energy: -6.253959004044134 Kcal/mole
 H      3.1864998503     2.8472478287    -2.1647991375
 F      2.3747625689     2.4261544705    -2.0965937887
 H      4.3896915979     4.3959500863    -1.1376026325
 F      4.4730310031     3.9270711285    -1.9212454507
          4
Energy: -6.047637776867816 Kcal/mole
 H     -5.5239741437     6.6352624031    -4.9766748993
 F     -5.0394600876     6.8791626544    -4.2373185598
 H     -7.2278516942     6.1034856448    -6.4449942010
 F     -6.3146494376     6.1749952090    -6.4021337225
          4
Energy: -6.273619640599009 Kcal/mole
 H      6.3134278034     0.8599534103     4.4140783548
 F      6.2406295888     1.6827712523     4.0158821484
 H      5.2980146507    -1.0576961831     5.2171434326
 F      6.1485284096    -0.7287029097     5.1208170503
          4
Energy: -6.192450176551404 Kcal/mole
 H      2.5116789097     1.3220554368    -0.5048521644
 F      1.6671495725     1.6657099343    -0.6026314310
 H      4.1840267387     0.9650591226     1.0132794130
 F      3.9594407179     0.6832531119     0.1700502084
          4
Energy: -6.206893758713022 Kcal/mole
 H      2.8459148843    -6.5237590198    -5.8481708120
 F      3.4397078160    -6.4297197176    -6.5405981107
 H      2.2287687476    -5.6786760607    -3.8613524748
 F      1.8746702263    -6.2515910787    -4.4836639879
          4
Energy: -6.184855539535334 Kcal/mole
 H     -4.7542248622    -2.5887825782    -3.9208609517
 F     -4.3126526334    -2.0809257568    -3.2979770013
 H     -5.6831924068    -4.6790611139    -4.8376655445
 F     -5.5304346496    -3.7823452486    -4.9536600471
          4
Energy: -6.188721057817872 Kcal/mole
 H     -2.2468580300    -5.2367053406     1.0014041191
 F     -1.9483528593    -4.4493393871     0.6383083763
 H     -2.6935973796    -6.8457695531     2.6457801933
 F     -2.7974253298    -6.7077216699     1.7451961947
          4
Energy: -5.901235812267913 Kcal/mole
 H     -3.5104164241     0.1076186310    -0.5846043959
 F     -3.5619302319     0.2191828102     0.3241248056
 H     -2.0322760023    -0.8206816962    -1.9857681380
 F     -2.8544637675    -0.4801935028    -2.2070463994
          4
Energy: -6.243878242383801 Kcal/mole
 H     -3.1241540844     3.9118676090    -1.4267618000
 F     -2.9339714890     4.7564192961    -1.1243514360
 H     -2.3465263156     1.8561572849    -1.6048810264
 F     -3.1012611849     2.2585860870    -1.9355097249
          4
Energy: -6.215355546573107 Kcal/mole
 H      5.6181561286     0.7920031626     2.4497271769
 F      6.1043068543     0.0403610688     2.2507783524
 H      5.1787580841     2.1382364519     4.2290751950
 F      4.9233251109     2.0698737988     3.3510264812
          4
Energy: -6.219423432227529 Kcal/mole
 H      5.4666927477    -4.8663829607     3.2993822668
 F      5.2589704532    -5.1663076176     4.1406822422
 H      5.1166114910    -5.2186557245     0.9977313829
 F      5.6030837009    -4.6641633173     1.5424991860
          4
Energy: -6.233530261413307 Kcal/mole
 H      4.1158941112     5.8838329447     5.0247520691
 F      4.8382382351     5.3415508841     4.8665176435
 H      2.1844288933     6.3883616068     4.1204707695
 F      2.6703619160     6.7278318538     4.8201264340
          4
Energy: -6.281870058141351 Kcal/mole
 H      3.7068568733     4.0490633823     2.7870752629
 F      3.9849455510     3.6562278078     3.5676109115
 H      2.0480925777     4.8160441116     1.6266533099
 F      2.9551743662     4.7864300530     1.4954487503
          4
Energy: -6.200612381898793 Kcal/mole
 H      0.4843396291     0.0903546643     0.5786134804
 F      0.6567321725     0.9428021852     0.8693075378
 H      0.0874005478    -0.9729671776    -1.2528153057
 F      0.0924210738    -1.2054854100    -0.3657983578
          4
Energy: -6.293132486034779 Kcal/mole
 H     -3.3978678992    -1.8345574744    -3.1841656095
 F     -3.4700823558    -2.6921962066    -2.8677325560
 H     -2.6423105304     0.3095113562    -2.8167140585
 F     -3.1425435493    -0.1638664834    -3.4221637655
          4
Energy: -6.103832800314649 Kcal/mole
 H     -1.6068384410    -0.6610543921    -6.1753521990
 F     -0.8474122152    -0.2911045558    -6.5321405484
 H     -2.8115487512    -2.4983238298    -6.0813891517
 F     -3.0103686740    -1.6527387183    -5.7875431759
          4
Energy: -6.257832997389244 Kcal/mole
 H      1.7526408966     0.9624760879    -3.7831727551
 F      2.2627265397     0.7581772725    -3.0490313309
 H     -0.3274841776     1.4151105044    -4.6928685820
 F      0.5594860701     1.3214260625    -4.9059319649
          4
Energy: -6.2410703755118675 Kcal/mole
 H      4.3429679862     5.6336248500     0.9350772974
 F      4.8349514247     6.2308625451     0.4429915002
 H      3.6747528954     3.6098010509     1.3150188844
 F      3.5367194111     4.4245512036     1.7125335959
          4
Energy: -6.157953226504247 Kcal/mole
 H     -4.8799742059     3.2360692481    -0.8809846594
 F     -4.0724497401     3.6679234145    -0.9288930730
 H     -7.2268295860     2.9235575948    -0.3277027282
 F     -6.5028343217     2.5227939136    -0.7228081940
          4
Energy: -6.1769785125985095 Kcal/mole
 H     -2.5635165545     1.5987437696     2.3950302425
 F     -2.2743396244     1.8443038323     1.5601853715
 H     -2.8874194769     0.0694737235     4.1933178371
 F     -2.8691594095     0.9516639254     3.9437261356
          4
Energy: -6.180358378913979 Kcal/mole
 H      0.8691249379     3.9101527245     4.4591446867
 F      0.8364704746     3.2280345455     3.8471500169
 H     -0.4785517603     5.2251629169     5.4428617329
 F      0.4203326317     5.0729182230     5.5414386213
          4
Energy: -6.227771153936715 Kcal/mole
 H     -0.5146540414     2.7309119383     3.8211764752
 F     -0.8651980760     1.8894445559     3.7214742979
 H     -0.5750095168     4.2628276956     5.2922793136
 F     -0.0890639818     4.2188435116     4.5158700603
          4
Energy: -6.157853933744889 Kcal/mole
 H      1.0066923229     6.7611836826    -0.4549052727
 F      1.3279706542     6.7459636795     0.4038365891
 H      0.7162931349     5.8008839661    -2.4080202984
 F      0.5476084132     6.6509157661    -2.1082196920
          4
Energy: -6.313834898884124 Kcal/mole
 H     -1.4591528228     5.7048685735     0.5991785483
 F     -2.2508870008     5.8946830708     0.1772585938
 H      0.1277111793     6.5266240531     1.9288096284
 F      0.0041052566     5.7336847836     1.4851229251
          4
Energy: -6.294668956648593 Kcal/mole
 H     -1.7831747649     6.2962920128     3.5183103788
 F     -1.2803012358     6.2486756809     2.7529739177
 H     -1.7672605038     6.4104082947     5.7419088520
 F     -2.4307629327     6.3630319580     5.1107123615
          4
Energy: -6.239840353961398 Kcal/mole
 H     -5.5124350955     5.7551661286     2.3104487035
 F     -6.3071845522     5.5055898703     1.9270768313
 H     -4.0255614358     7.4690443484     3.0981575225
 F     -4.1336216423     6.5646908955     2.9915891222
          4
Energy: -6.29017813998405 Kcal/mole
 H     -5.6694737791     6.6326830315     1.7415565913
 F     -5.0945268346     7.3375747337     1.8575423625
 H     -6.2496171825     4.6426505518     2.4913002294
 F     -6.5133837360     5.1458958558     1.7715361227
          4
Energy: -6.300714408194835 Kcal/mole
 H     -6.1693259791     5.3206922351     2.0032810461
 F     -7.0319478136     5.0671750461     1.8229990296
 H     -4.3111674029     6.5749936858     1.5966202324
 F     -4.6168277185     5.9420549629     2.1855594012
          4
Energy: -6.159435701843279 Kcal/mole
 H     -4.5757741588     5.8972909119    -1.4888230396
 F     -3.7761808679     6.1942277405    -1.8255248199
 H     -6.4002880189     4.5009235745    -1.9630751224
 F     -6.1313487951     5.1494087964    -1.3731364722
          4
Energy: -6.296658538999964 Kcal/mole
 H     -3.5574940895     1.6934595521    -3.9364590759
 F     -3.2192557391     0.9970553756    -4.4278907001
 H     -3.7086853761     3.8770203525    -3.6305492350
 F     -3.9918425621     3.1206394704    -3.1962694068
          4
Energy: -6.317168034252234 Kcal/mole
 H     -5.0770973741    -1.6093827711    -5.2166076351
 F     -4.7778857012    -1.4843320804    -6.0743510114
 H     -4.8142763494    -2.7606495626    -3.3061753263
 F     -5.3838996856    -2.1061730325    -3.6029559295
          4
Energy: -6.308557998113031 Kcal/mole
 H     -5.9152025606     0.3087150802    -5.0779869064
 F     -6.0777608521     1.2093234513    -5.1360245132
 H     -6.8076944059    -1.8094169278    -5.0164090464
 F     -5.9809531620    -1.4127265337    -5.0114444796
          4
Energy: -6.310710689353016 Kcal/mole
 H     -5.0332578546     1.8495569712    -3.2138113848
 F     -5.5726062345     2.4141450756    -2.7329448778
 H     -4.4899430599    -0.2450311289    -3.9359576254
 F     -4.1641619591     0.6098140685    -3.9991665082
          4
Energy: -6.2390317917272 Kcal/mole
 H     -4.0724030830     4.3251921976    -1.9012578974
 F     -3.4306631399     4.4915661819    -2.5348023257
 H     -6.1706325095     4.3962929653    -1.0637576276
 F     -5.3319867613     4.0841520286    -0.8634320312
          4
Energy: -6.290227839667068 Kcal/mole
 H     -4.6655898860     5.1933247443    -4.4769044560
 F     -4.8152746064     4.4749274448    -5.0268033601
 H     -5.2395966530     7.3491241878    -4.2205969363
 F     -4.6804601587     6.7621089574    -3.7920313054
          4
Energy: -6.296204002387356 Kcal/mole
 H     -2.7365158153     5.7713986361    -6.3056846359
 F     -3.3810588620     6.3515080861    -6.6038897448
 H     -2.2246489489     3.6098662702    -6.0019304613
 F     -1.8346931953     4.4283003896    -5.8641295092
          4
Energy: -6.279531000370525 Kcal/mole
 H     -6.5897676404     6.2065886475    -5.0232960257
 F     -7.1423637350     6.4932048790    -5.6966292953
 H     -4.7997048732     6.6431815381    -3.6863024720
 F     -5.3389623056     5.9260438157    -3.8755216802
          4
Energy: -6.280294329465221 Kcal/mole
 H     -5.9801791589     4.1983113116    -2.8598443812
 F     -6.7325183769     4.6827065852    -2.6592554484
 H     -4.5158369541     3.7652767446    -4.4343655102
 F     -4.6054350077     3.4526174545    -3.5769826569
          4
Energy: -6.280631047773397 Kcal/mole
 H     -4.4353837063     4.4982410035    -2.4416925633
 F     -3.9709130012     5.2810883418    -2.3307601107
 H     -4.7157218905     2.4941924277    -3.4459135748
 F     -5.1750898462     3.0023232470    -2.8362635509
          4
Energy: -6.302782078306677 Kcal/mole
 H     -5.2025524733     4.0393228185    -3.4118289263
 F     -5.0344442019     4.9407075869    -3.4234094457
 H     -4.4519382968     1.8520356080    -3.6296736394
 F     -5.2124857116     2.3199752466    -3.4211331770
          4
Energy: -6.299614898995856 Kcal/mole
 H     -4.4447551552     4.5916660176    -3.4647208462
 F     -3.8150217432     5.0568283549    -3.9421607166
 H     -5.3793305261     2.5982003589    -2.7255733578
 F     -5.4780453300     3.5080623380    -2.6681663341
          4
Energy: -6.297774480292958 Kcal/mole
 H     -4.7290617530     4.3707874054    -4.2695500600
 F     -3.9411220772     4.7140860371    -4.5892156928
 H     -6.5162054529     4.7879125833    -3.1030604687
 F     -6.1976362075     4.0313995378    -3.5118276983
          4
Energy: -6.313379033012382 Kcal/mole
 H     -5.2201238990     4.3592862230    -3.8994649880
 F     -4.6460604639     5.0733633723    -3.9373331459
 H     -7.0683587587     3.5254222791    -2.9466615551
 F     -6.4882468411     3.2435023388    -3.5984899913
          4
Energy: -6.319867944321118 Kcal/mole
 H     -4.9897896302     4.8458098866    -3.9071793315
 F     -4.4306569154     5.4299525671    -4.3396570027
 H     -7.0975052803     4.0386110045    -3.6186707747
 F     -6.2500971782     3.8724592480    -3.3101548071
          4
Energy: -6.316751744143289 Kcal/mole
 H     -4.7618921614     4.6166488910    -3.7955180044
 F     -4.1182381155     4.8375425253    -4.4101760161
 H     -5.2765239466     4.6669580765    -1.6066797216
 F     -5.6899186981     4.3827808750    -2.3742975285
          4
Energy: -6.31576401439338 Kcal/mole
 H     -4.8662184341     4.6895443271    -3.6336215319
 F     -4.3882426900     4.9221391077    -4.3808349258
 H     -6.7880271195     4.9384173968    -2.4437723249
 F     -5.9951250142     4.4807685313    -2.3913055032
          4
Energy: -6.3225308919027725 Kcal/mole
 H     -5.2083250230     4.7580027298    -4.1075788710
 F     -4.5952383793     4.6986571789    -4.7869108024
 H     -5.7152309954     5.5829431691    -2.1071487675
 F     -6.1227962884     5.0423719474    -2.7256649648
          4
Energy: -6.325894030414645 Kcal/mole
 H     -5.0474148321     4.8628762420    -3.9554271906
 F     -4.5697188745     4.8590584911    -4.7381666088
 H     -6.2374709447     6.1049609972    -2.5380314196
 F     -5.9921604904     5.2230995504    -2.5930965589
          4
Energy: -6.327927304581408 Kcal/mole
 H     -5.0542987645     4.8718758806    -3.9606234029
 F     -4.5767425649     4.8613281288    -4.7433863435
 H     -6.2830300118     6.0911745812    -2.5420218313
 F     -5.9897436871     5.2238308879    -2.5928848768
