          4
Energy: -6.327985623249447 Kcal/mole
 H     -2.5042460184     4.9005776284    -1.0982676920
 F     -2.9253343484     4.5396639881    -1.8285518576
 H     -0.5505195713     5.4570809566    -0.1538755175
 F     -1.4377822923     5.5042801341     0.0728977207
