          4
Energy: -6.112689239927477 Kcal/mole
 H      1.7133992883     5.4548264469    -3.7755184634
 F      1.8297388901     6.1253350431    -4.3901503202
 H      3.3359483573     6.3602467755    -5.2379557310
 F      4.1118188555     6.2389306952    -5.7114495310
          4
Energy: -5.519454704545382 Kcal/mole
 H     -2.0074999523    -1.3197582251    -0.8819828081
 F     -1.6249083622    -1.9651219463    -0.3547083609
 H     -1.9763875075     1.2305247639    -1.7488570630
 F     -2.2063381587     0.3447752951    -1.6900388971
          4
Energy: -6.127371817960807 Kcal/mole
 H     -5.2844725850     6.3119352325     0.7828062592
 F     -5.4886736974     6.9116463446     0.1198300245
 H     -4.9980564183     6.3931643129     2.9260111916
 F     -4.8009926576     5.7399135315     2.3133789277
          4
Energy: -5.843520188490544 Kcal/mole
 H      2.1072786956     1.2796871373    -3.6229695265
 F      2.4049097015     2.1371141920    -3.4921122374
 H      3.6530278443     2.6234113221    -4.7576814259
 F      4.3116921836     2.4416619094    -5.3692510778
          4
Energy: -5.872463532983602 Kcal/mole
 H      2.4330851980     5.0442648392     1.0513610822
 F      2.2875597081     4.6573930655     0.2328004170
 H      3.0063951626     3.2240284947    -0.3402148206
 F      3.4854328216     2.5695661521    -0.7681061191
          4
Energy: -5.772483546215739 Kcal/mole
 H      6.6096980837     5.2910106161     3.3169412870
 F      6.7741704853     5.8866567166     3.9944688156
 H      6.3344966281     4.9613815478     0.8308154950
 F      6.2196173236     4.5123234127     1.6220414657
          4
Energy: -5.9697380288165505 Kcal/mole
 H     -1.7922780451    -4.9748199429    -4.0456925173
 F     -2.4808721242    -5.0522503766    -4.6463019762
 H      0.2170959340    -5.6617633738    -3.8040214338
 F     -0.2000693329    -5.0614941058    -3.2503618398
          4
Energy: -5.955552109558312 Kcal/mole
 H      3.0055646436     6.3577752778    -2.0270760722
 F      2.7388011707     7.0088171783    -2.6151837948
 H      3.4066250666     5.4832543932     0.1979050431
 F      3.1536117280     5.2764071572    -0.6588840041
          4
Energy: -5.728303587709036 Kcal/mole
 H     -6.5256014007     3.1610914310    -1.6592869202
 F     -6.1551409118     2.9320281131    -0.8523308975
 H     -6.7711320114     4.7203939418    -3.0098697044
 F     -7.2213005837     3.9247479576    -3.0818747354
          4
Energy: -5.833600125891735 Kcal/mole
 H     -0.5045781445     1.5594612256    -2.0646108827
 F     -1.0918385532     2.2184057977    -1.8160022279
 H      0.1172507721     3.4167744775    -1.9034615261
 F      0.9953517424     3.6724650692    -1.9701699002
          4
Energy: -5.705416193067322 Kcal/mole
 H      6.2792397298    -5.8889485709     3.3108668564
 F      5.5906072114    -6.2519130649     3.7955637006
 H      6.1142883108    -7.1625037563     5.1805115345
 F      6.7820742158    -7.3684256098     5.7742683664
          4
Energy: -5.993143702011196 Kcal/mole
 H     -1.6071891436    -6.2811860795     4.5636340749
 F     -0.8419436834    -6.6492379418     4.9097933046
 H      0.3134329899    -6.0463776074     3.9243531873
 F      0.7696509357    -5.4945761292     3.3514052711
          4
Energy: -5.521014233726362 Kcal/mole
 H     -3.6888398803     2.2748223702     1.4021008837
 F     -3.7650599712     1.5388012969     1.9437211172
 H     -4.3137705669     3.5038749254    -0.6676022296
 F     -3.7232821702     3.2083377597    -0.0313080861
          4
Energy: -6.089441628164593 Kcal/mole
 H     -3.6528110704    -6.9223116033     0.9404806423
 F     -4.0919634047    -6.1512097136     1.1716431455
 H     -3.0288411714    -4.8079407030     0.8086408417
 F     -2.3106666078    -4.4032021782     0.4070178560
          4
Energy: -6.031439823715459 Kcal/mole
 H      3.5429416045     5.3254642727     3.0064014111
 F      3.4894706747     4.8974959232     3.8156436193
 H      4.7001118581     3.8442284215     3.6931767152
 F      5.4282853319     3.3379506509     3.4600775708
          4
Energy: -5.262420096194319 Kcal/mole
 H     -1.6518776649     5.2749497135     1.8798785127
 F     -2.2647927299     5.9547216014     1.9358633642
 H      0.3064621299     3.2279594998     1.4845525641
 F     -0.4028847415     3.8075588436     1.4423552082
          4
Energy: -6.027820346098451 Kcal/mole
 H     -5.7049170153    -3.0216717727     0.0292526479
 F     -5.5368272833    -2.6193673363    -0.7774604253
 H     -5.2393711571    -2.3993246597     2.0293596105
 F     -5.7853283995    -3.0751845317     1.7360455757
          4
Energy: -6.106222895133783 Kcal/mole
 H     -4.7908333963    -7.3731894306    -3.5964169336
 F     -5.4530059865    -7.2156453050    -2.9819282769
 H     -3.6858373697    -5.9730054324    -4.8323516907
 F     -3.6434319383    -6.8890242281    -4.8317640461
          4
Energy: -6.080617025498896 Kcal/mole
 H      2.6379608660    -5.6838048347    -6.5751686328
 F      3.3482078733    -5.1949533904    -6.2629788605
 H      0.8072902232    -7.1190000253    -6.3340491424
 F      1.2421684922    -6.5162426218    -6.8711277249
          4
Energy: -6.0101689312788835 Kcal/mole
 H     -6.6220298038     6.6388200606     0.6711795120
 F     -7.3606988952     6.9669607595     0.2380736876
 H     -5.6063262877     5.2052804265     2.4332067192
 F     -5.5056145162     5.6523714601     1.6389424390
          4
Energy: -5.9811727428282495 Kcal/mole
 H     -4.6701785939     5.4404640816    -4.1467499685
 F     -5.2136737368     5.8199731742    -4.7803704214
 H     -4.2389374687     4.9221077516    -1.8695215740
 F     -3.9541948500     4.6260168062    -2.6893635059
          4
Energy: -6.065913904137318 Kcal/mole
 H     -2.5787197302    -2.7608224189    -4.3361031167
 F     -3.3223757236    -3.2971328955    -4.3207461595
 H     -1.0394461592    -1.0919364783    -3.3623647140
 F     -1.1842447519    -1.6051953487    -4.1083457455
          4
Energy: -6.121003705945043 Kcal/mole
 H     -7.1481328760    -5.0034964456    -4.0260084335
 F     -6.9188225939    -5.7599638005    -3.5611827290
 H     -6.9026128358    -3.7472877493    -5.9742854571
 F     -7.2560820806    -3.7591818284    -5.1282316622
          4
Energy: -5.7361391106066435 Kcal/mole
 H     -3.7714327615    -5.3971168505     1.5955399466
 F     -3.0224242610    -5.9217149099     1.6638930175
 H     -6.1260170451    -4.4927450555     2.2141899757
 F     -5.2506242325    -4.5103658997     1.9416722158
          4
Energy: -6.210544881464898 Kcal/mole
 H     -4.8468610827    -7.2578474851    -0.3877749875
 F     -4.4202296591    -7.3185050916    -1.1972163276
 H     -4.3516174508    -7.4023676776     1.8611336205
 F     -5.0945014452    -7.2643085429     1.3415645239
          4
Energy: -6.18120539947239 Kcal/mole
 H     -4.9299974830     4.7029859557    -4.9068469546
 F     -5.2738351864     4.4046549069    -5.7028766143
 H     -3.6798356315     3.8364178859    -3.3539582356
 F     -3.9989041022     4.6858240441    -3.4865986870
          4
Energy: -5.759137187412023 Kcal/mole
 H     -1.7777124979     2.3499452663    -1.7659117499
 F     -1.4740567935     1.5241750328    -1.5074823890
 H     -2.8016980353     4.6055808429    -2.6910010083
 F     -2.3040905877     3.8491311271    -2.5458815554
          4
Energy: -5.877935159163769 Kcal/mole
 H      2.9950932992     1.0721044873    -3.6850852060
 F      2.5201323173     1.5884531694    -3.0945895632
 H      3.0238326083    -0.8086139577    -5.1310659209
 F      3.5601393043    -0.3190409091    -4.5710816730
          4
Energy: -5.945622739509588 Kcal/mole
 H      6.7581683158     1.3638740308    -5.8628047611
 F      7.4983975722     1.0417085377    -6.2977289420
 H      4.6514159909     1.6511049170    -6.5196909918
 F      5.0379396966     1.9575966094    -5.7466765887
          4
Energy: -6.264597560782136 Kcal/mole
 H      4.9112337235    -4.0069572019    -3.6824537917
 F      5.2416930168    -3.1542691139    -3.6145665326
 H      3.3376803709    -5.1631481083    -4.7966229973
 F      3.9404540093    -5.3800418454    -4.1404903525
          4
Energy: -5.9897788440156035 Kcal/mole
 H      2.8535006292    -3.5416062467     0.5907881281
 F      3.2834680598    -3.0800541288     1.2563605516
 H      2.6692219613    -4.7546214686    -1.5318474884
 F      2.1956626670    -4.5768695687    -0.7669717750
          4
Energy: -6.262566524588351 Kcal/mole
 H     -0.2238174457    -1.3892703166    -6.6216138166
 F      0.5915468883    -1.1085031670    -6.9334468016
 H     -1.6278722668    -2.5557975158    -5.2107913612
 F     -1.6668494775    -1.9392366012    -5.8884508743
          4
Energy: -6.1348905662521815 Kcal/mole
 H     -1.7605115675    -1.0095709718     1.0637976157
 F     -1.9182723219    -1.4400337636     0.2696299198
 H     -2.6775064557     0.4789394711     2.6090354917
 F     -1.8882332350     0.0162367245     2.5470439484
          4
Energy: -6.296963952029955 Kcal/mole
 H      4.0038497241     3.7334368852    -4.7439561011
 F      3.3854546753     3.4553599946    -5.3613294132
 H      5.2655626462     5.4372745086    -4.0354390271
 F      5.0696522869     4.5959269146    -3.7277990471
          4
Energy: -6.115211995866048 Kcal/mole
 H     -1.9271255147     6.2032652713    -5.7517856572
 F     -2.5791747748     6.4458539418    -6.3491728845
 H      0.1172724731     6.7740968482    -4.5302796644
 F     -0.5073416457     6.1103021434    -4.6308917546
          4
Energy: -6.25477292039443 Kcal/mole
 H      4.3930271358     1.0607759755    -2.9092738746
 F      4.5756329614     0.1622953194    -2.8926418874
 H      3.7468297894     3.0633499403    -3.9924095636
 F      4.0736684837     2.7099547506    -3.2119114484
          4
Energy: -6.1459818378624504 Kcal/mole
 H     -0.2697560866     0.6605766647     3.6884805931
 F     -0.8347312476    -0.0153468834     3.9430771851
 H      0.7839638124     2.2676302083     2.1846521901
 F      0.7714274384     1.8166519358     2.9829944959
          4
Energy: -6.2619144036455054 Kcal/mole
 H     -2.0232127207     0.8763048617     4.8461832215
 F     -2.4419176887     0.7572885694     4.0390833070
 H     -1.6099188812     2.2198513782     6.5450432533
 F     -1.4249570441     1.3369397776     6.3802851751
          4
Energy: -6.264984223802969 Kcal/mole
 H     -6.8464732220     4.7790971237     2.6971068838
 F     -7.0185925830     5.5843719162     3.1005872849
 H     -5.6196618607     3.8331265669     1.0565542501
 F     -6.1814643450     3.5555869940     1.7260606012
          4
Energy: -6.180038270638022 Kcal/mole
 H     -5.9823892923     2.5124699104    -1.8935776803
 F     -6.8211142150     2.8597844285    -1.7639546520
 H     -4.4147517356     0.8842479401    -1.8654999552
 F     -4.4602848404     1.7975585335    -1.9339067999
          4
Energy: -6.2151045280094195 Kcal/mole
 H     -3.8652262485     3.9724580975    -1.4875020257
 F     -4.2859140516     3.1619529582    -1.5711213507
 H     -2.3543942397     5.6474940133    -2.1477282437
 F     -3.0638100172     5.5068972464    -1.5839456582
          4
Energy: -6.120004383066998 Kcal/mole
 H     -5.0147927265     2.2382077034     0.6697313786
 F     -5.0064124510     1.7127129112    -0.0817165532
 H     -5.4552341620     4.2982856689     1.3570947078
 F     -5.3111131489     3.5293080883     1.8354163717
          4
Energy: -6.248378046589153 Kcal/mole
 H     -2.9836623997     2.1233669235     2.2921849167
 F     -2.9607602104     1.6716955097     1.4944647755
 H     -1.9041694012     3.1071867223     4.1320582494
 F     -2.7507115614     2.9088114345     3.8406777143
          4
Energy: -6.283485347197484 Kcal/mole
 H     -5.5517767136     2.5717771898    -1.6295619509
 F     -5.1112864977     3.1649312763    -2.1727245411
 H     -6.7625861211     0.6056325383    -1.2479246871
 F     -6.4454429276     1.3431862293    -0.8048403297
          4
Energy: -6.088563443283192 Kcal/mole
 H     -5.1598981501     4.4357141764     0.1596500622
 F     -4.2429057349     4.4324227611     0.1578958842
 H     -6.7329346842     3.4702173133     0.9871072637
 F     -6.7847651143     4.1547577019     0.3791540888
          4
Energy: -6.262804539619026 Kcal/mole
 H     -5.2302476508     6.4060662634     1.1595312940
 F     -4.3876697295     6.4717480746     0.8036698796
 H     -7.3473953649     6.7406069251     0.6292529643
 F     -6.9405715079     6.3618469210     1.3585843079
          4
Energy: -6.232341462903378 Kcal/mole
 H     -5.0004666520     4.8252639287    -0.6579614290
 F     -4.9790464851     4.0869068230    -0.1145840640
 H     -4.7974783508     5.5092739416    -2.8646221448
 F     -4.9507257819     5.8503385176    -2.0273174333
          4
Energy: -6.276628142341849 Kcal/mole
 H     -5.2322418312     3.2792604244     2.1279651703
 F     -5.2362577661     2.7347176472     1.3901670705
 H     -4.0897556140     4.9282125974     3.2276524546
 F     -4.8898355908     4.4838574155     3.2851807342
          4
Energy: -6.296078026661746 Kcal/mole
 H     -5.5561499536     2.1406315390     3.7614666699
 F     -5.1675491825     2.0274016274     4.5843016642
 H     -7.4329478882     2.3265456371     2.7187291933
 F     -6.5617121981     2.3154288757     2.4328729532
          4
Energy: -6.314337540570023 Kcal/mole
 H     -3.6793676565     4.7367072482     3.0222779950
 F     -3.8499686182     3.8502195599     3.1832869709
 H     -3.9153608568     6.9130394928     3.6097937509
 F     -3.4764828866     6.4249655357     2.9694353046
          4
Energy: -6.302458169873034 Kcal/mole
 H     -4.4245204542     1.7752749724     3.4123307487
 F     -5.1558020310     1.5792028775     2.8949604857
 H     -2.6300047795     0.8474511251     4.3048668232
 F     -2.9521972677     1.7057509161     4.2848051850
          4
Energy: -6.311456883257961 Kcal/mole
 H     -3.5241622298     2.4784248351     1.1696652538
 F     -4.3910695166     2.3672539088     0.8921733057
 H     -2.1109686234     2.9631878078     2.8576529098
 F     -2.0743682090     2.7437638732     1.9680448239
          4
Energy: -6.287256816653439 Kcal/mole
 H     -3.6411936380     1.9351383193     1.6802408686
 F     -4.5251762282     2.1772361666     1.6510447623
 H     -1.8564809999     1.0663222786     2.7914153414
 F     -2.0318124258     1.3857393675     1.9499163132
          4
Energy: -6.3116928805097245 Kcal/mole
 H     -3.5547165272     1.5346505950     2.2861437965
 F     -4.4419259257     1.6281015138     2.4983121473
 H     -1.4118787014     1.6780544195     2.9387328588
 F     -1.8694425233     1.3934349737     2.1967651237
          4
Energy: -6.327975455109026 Kcal/mole
 H     -3.5584070471     1.5261286918     2.2749878144
 F     -4.4417301521     1.6285535811     2.4989039463
 H     -1.4323816149     1.5350694187     2.9895844140
 F     -1.8683548911     1.4010199976     2.1940675662
