          4
Energy: -6.327961204682481 Kcal/mole
 H     -2.5660510633     4.9689159587    -1.0935576054
 F     -2.9782489693     4.7938339185    -1.8937626825
 H     -0.6932828436     5.6398170069    -0.0658028697
 F     -1.5332333515     5.3730215738     0.1875592056
