          4
Energy: -6.327982343383951 Kcal/mole
 H     -2.2346342326     3.6242673787    -1.7856197354
 F     -1.3946909466     3.9575807729    -1.9414608647
 H     -4.4423891929     4.0164810439    -1.8273950635
 F     -3.8929645119     3.3174543060    -1.6029331746
