          4
Energy: -6.29183222236469 Kcal/mole
 H     -0.4125312685    -4.3549313023     3.2946081081
 F     -1.0350940576    -4.9246754681     2.9358656389
 H      0.4939054305    -3.8892485114     5.2127929909
 F      0.5952155826    -3.5292080524     4.3755378798
          4
Energy: -6.2909656491675605 Kcal/mole
 H      0.6249683738    -5.4160439483     3.6728515029
 F      0.5706503395    -6.3300554983     3.6226375834
 H      1.4434354563    -3.7122138888     4.8251422404
 F      0.8954590281    -3.8277282362     4.0990105239
          4
Energy: -6.256516820823094 Kcal/mole
 H     -1.0966847993    -6.1437382057     6.0339157027
 F     -0.8265800464    -6.7140332298     5.3685616556
 H     -0.4624617616    -4.2908427148     7.1989755670
 F     -1.1401627562    -4.9085607498     7.2048739786
          4
Energy: -6.2926208455627375 Kcal/mole
 H     -0.7258526441    -4.0859348535     5.0873263673
 F     -0.2651145430    -4.8613693022     5.2525862171
 H     -2.1040298497    -2.6225503485     6.0726981027
 F     -1.6955551840    -2.6977254535     5.2551492351
          4
Energy: -6.319378467761169 Kcal/mole
 H     -1.2586672208    -2.8445457044     5.2078607504
 F     -0.5452392848    -2.4208053229     4.8175356690
 H     -2.3872521895    -3.2637127840     7.1265901667
 F     -2.4474355365    -3.4734143070     6.2359206230
          4
Energy: -6.304130873676968 Kcal/mole
 H     -1.2738549241    -1.9163612863     3.2639856149
 F     -0.4686565075    -1.4977268511     3.3954759928
 H     -3.0378910195    -2.8447334879     4.1627996872
 F     -2.7599509028    -2.6920829208     3.3023718309
          4
Energy: -6.3056673439138535 Kcal/mole
 H      0.0889165822    -1.0295382011     3.9757232580
 F      0.1154806662    -0.5922915513     3.1701186921
 H     -0.4390658390    -2.9579307853     4.9313633747
 F     -0.1650964784    -2.1379050593     5.2369572197
          4
Energy: -6.2789882739530185 Kcal/mole
 H      0.6396744051    -2.8094243534     3.5366464438
 F      1.5467761894    -2.6761549015     3.5538105364
 H     -1.2757486133    -3.3833847868     4.5387628185
 F     -0.9905709267    -3.1839185221     3.6903667457
          4
Energy: -6.287480546027041 Kcal/mole
 H      1.1852692535    -1.0738639519     4.6485206028
 F      1.7789541390    -1.2094152477     5.3341247911
 H     -0.2041875625     0.4631398333     3.9127750974
 F     -0.0090562436    -0.3861282177     3.6271940300
          4
Energy: -6.269908174435557 Kcal/mole
 H      1.8286389320    -1.2139638225     5.5041016162
 F      2.0901874336    -1.9436878396     5.9939834797
 H      1.3464503779     1.0448644015     5.5155015954
 F      1.3032131223     0.3147542290     4.9623662812
          4
Energy: -6.306660276525065 Kcal/mole
 H      0.2932698365    -0.7715828644     6.1128364384
 F      0.8135911374    -1.1574778267     6.7618663466
 H     -1.1091850205     0.8583525941     5.4189789011
 F     -0.7218558312     0.1059806424     5.0657062793
          4
Energy: -6.322285719799083 Kcal/mole
 H      0.9981816667     0.5624248762     5.8287504097
 F      1.3108037588     0.8881876271     6.6268951696
 H     -0.6308390797    -0.4953570247     4.6789600771
 F      0.1804068612    -0.1034440437     4.5081583243
          4
Energy: -6.311425829503662 Kcal/mole
 H     -0.4919803658    -0.5142306867     4.5393846643
 F     -1.1997975691    -0.1277297073     4.9758486370
 H      1.4575210873    -0.1765088137     3.4237120510
 F      0.9089329941    -0.8739267999     3.6551170134
          4
Energy: -6.289164047042391 Kcal/mole
 H      0.2224376683     0.8994276262     3.0879292280
 F     -0.0021235377     1.6650152413     3.5399655854
 H      0.3219803502    -0.2260533307     1.1065353076
 F      0.4772587022    -0.3546561901     2.0010960590
          4
Energy: -6.295370342310832 Kcal/mole
 H      0.4074014646     0.7004504474     4.4974770792
 F      0.0662019164     1.2872503239     5.1140302183
 H      1.0491828690    -1.4483614988     3.8348383064
 F      1.0331168529    -0.5815674330     3.5360090397
          4
Energy: -6.308080497731453 Kcal/mole
 H      0.8079970551     0.5329495480     4.8315724383
 F      1.2407174405     1.3356927836     4.9277252636
 H     -0.7484374481    -0.6439428788     3.6322686284
 F     -0.1971491648    -0.7679783328     4.3544773481
          4
Energy: -6.321803308958806 Kcal/mole
 H     -1.1762976238     2.2931322416     5.9202684929
 F     -0.4478560871     2.5682051448     6.4046204574
 H     -2.1592798894     2.0481055988     3.8798446662
 F     -2.3626080513     1.8796710035     4.7580111913
          4
Energy: -6.2848931884493595 Kcal/mole
 H     -0.4118320115     1.3550689282     4.3278687723
 F      0.2158418834     1.5723227813     3.6956383988
 H     -1.3462018105     1.8896617154     6.3689495144
 F     -1.4718266707     1.3085722287     5.6707787595
          4
Energy: -6.31745060607409 Kcal/mole
 H     -1.0064601088     2.4228949967     3.6842666312
 F     -0.3940642305     3.0547851148     3.9422882715
 H     -1.4227230830     0.2200390316     3.5504747477
 F     -1.8844801952     0.9881753547     3.3564748544
          4
Energy: -6.323175392629764 Kcal/mole
 H     -0.9323509264     2.9276758561     1.3806878275
 F     -0.3516527220     3.5277498722     1.0017554184
 H     -2.3119214850     2.3842000267     3.0876638873
 F     -2.0204767261     2.0057042917     2.3049187620
          4
Energy: -6.3020094516233485 Kcal/mole
 H     -0.2530627679     2.6217955254     2.0999167306
 F      0.1448274597     2.1343005586     1.4328927250
 H     -2.1553000890     3.2729820551     3.1165033506
 F     -1.2621876553     3.4575936387     3.2121994530
          4
Energy: -6.319356103787584 Kcal/mole
 H     -1.3605291532     2.8867365455     1.4799383795
 F     -1.4054263826     2.0560315036     1.0941892742
 H     -0.7843190614     4.0866047932     3.3016444273
 F     -1.1164358749     4.2413563095     2.4610259702
          4
Energy: -6.3138115967344675 Kcal/mole
 H     -0.0209887192     3.5119298323     1.3108542925
 F      0.5920252207     2.8748062184     1.0675922730
 H     -0.4243312641     5.6546683512     1.9237593980
 F     -0.9176486437     4.8911564105     1.8030263061
          4
Energy: -6.31674842893824 Kcal/mole
 H      0.3683410374     5.4923646183     1.2420682118
 F      0.7713232167     6.0638324143     0.6488406659
 H     -0.4389708145     5.0411321115     3.3173813502
 F     -0.3498939357     4.6196096713     2.5078919173
          4
Energy: -6.32663264195287 Kcal/mole
 H      0.0299786842     5.7487901559     1.5158243622
 F      0.6072623463     5.7837671551     0.8042000350
 H     -1.2463019150     4.4838401410     2.8523265767
 F     -1.0362146888     5.3731883346     2.7760891318
          4
Energy: -6.290897642840548 Kcal/mole
 H      0.1624179446     6.3568255845     2.2790719863
 F      0.3716604686     7.1503346214     1.8698654682
 H     -0.3726821882     4.0908017049     2.2924008300
 F     -0.2580655318     4.8056882501     2.8551523290
          4
Energy: -6.312408505989595 Kcal/mole
 H      1.1647581644     5.2834832498     2.0964043727
 F      1.7487388376     5.9904534318     2.1033854299
 H      0.2576850795     3.6796753153     3.2846550103
 F      0.1909186091     3.9658123972     2.4160027158
          4
Energy: -6.302271241826929 Kcal/mole
 H      0.3818693959     5.6657687557     1.8327486417
 F      0.5961088517     6.0810695521     1.0437519978
 H      1.1073664674     4.7955750316     3.7801950177
 F      0.3237431478     4.8774362313     3.3110231548
          4
Energy: -6.282621611857621 Kcal/mole
 H      0.5177858188     5.3039932942     1.6705304236
 F      0.4507191762     5.4696470227     0.7711139974
 H      0.1547927970     6.0881101684     3.7706453609
 F      0.5836610437     5.3763026206     3.3829714750
          4
Energy: -6.312805132349013 Kcal/mole
 H     -0.5958915358     5.3173732289     1.7442889845
 F     -0.8509577184     5.0145952763     0.9171519015
 H      0.2727538062     4.9556796305     3.8236638082
 F     -0.0723785447     5.6464401832     3.3290705214
          4
Energy: -6.317306665481624 Kcal/mole
 H     -1.2881422452     5.5494763389     1.8590155976
 F     -2.0778539011     5.2760163946     1.4815713510
 H      0.4085217559     7.0392573963     2.0057998892
 F      0.1570632165     6.2460177513     2.3910640436
          4
Energy: -6.310621964844643 Kcal/mole
 H     -1.2757256697     6.1031220403     1.1585818714
 F     -2.0141096066     6.1516664385     0.6169901404
 H     -0.2856163649     6.2734660378     3.2148042880
 F     -0.0735323069     6.0843886165     2.3429332648
          4
Energy: -6.303055809251305 Kcal/mole
 H     -1.3003688821     5.3987262475     0.5153945577
 F     -1.7820290022     5.9782220698    -0.0071732568
 H     -1.0001540314     3.2681409936     1.2410991117
 F     -0.6696278987     4.1047770532     1.4190923124
          4
Energy: -6.323035304210919 Kcal/mole
 H     -2.1483265378     4.6273331126     0.2037758988
 F     -2.8339116843     5.0460042303    -0.2384644228
 H     -1.5696028822     2.7903462058     1.2967025433
 F     -1.1525662719     3.5765569293     1.0756999100
          4
Energy: -6.313254924528451 Kcal/mole
 H     -1.9721837593     5.0639796295    -0.5108341469
 F     -2.5675520844     5.7201366611    -0.7472310744
 H     -0.9981258459     3.1354693116    -1.1901110819
 F     -0.9745664599     3.6699335676    -0.4453413763
          4
Energy: -6.315069854836338 Kcal/mole
 H     -2.2677024730     4.4595171802    -0.4338626122
 F     -2.6719704943     5.2824596515    -0.4487641510
 H     -0.7627810815     3.1738674470     0.5258399407
 F     -1.3705954310     3.0580251352    -0.1509401383
          4
Energy: -6.279271873372807 Kcal/mole
 H     -2.2866700966     4.1843916050    -0.7349497141
 F     -2.4510622503     5.0478608761    -0.9962637738
 H     -0.9794831980     2.6696974011     0.4974608798
 F     -1.6798091307     2.7023861163    -0.0936093664
          4
Energy: -6.325257561135572 Kcal/mole
 H     -1.9141657494     3.9999382269    -1.3392965808
 F     -1.7268572001     4.7600375532    -1.8168460771
 H     -3.0010077016     2.0225398553    -1.2981965721
 F     -2.4692110552     2.5108463184    -0.7328310931
          4
Energy: -6.313945659420199 Kcal/mole
 H     -2.2181830626     4.1879079674    -1.7823226440
 F     -2.2401960777     4.8526172989    -2.4136434277
 H     -2.8697437532     2.1401248423    -1.3021232117
 F     -2.3759449209     2.7692841025    -0.8535584577
          4
Energy: -6.317918469251424 Kcal/mole
 H     -2.1880485727     3.6211934732    -1.8496570865
 F     -2.5720400312     4.3814679403    -2.1893956543
 H     -2.3797481341     1.5702920228    -0.8970054399
 F     -1.7171552445     2.1404700153    -1.1740554708
          4
Energy: -6.3238130642786246 Kcal/mole
 H     -2.6530500396     3.8321063537    -1.1480473461
 F     -2.5384139882     4.7419108263    -1.1498905252
 H     -1.8946776112     1.8280729053    -0.4840361625
 F     -2.5871608541     2.1447285553    -0.9950010905
          4
Energy: -6.3241956391182725 Kcal/mole
 H     -2.2887453373     3.9632060208    -0.9073345871
 F     -1.8669879663     4.6378831227    -1.3632079555
 H     -3.4188375773     2.0403729404    -1.0006553888
 F     -3.1084591310     2.6010526231    -0.3447647626
          4
Energy: -6.317100348079691 Kcal/mole
 H     -2.0685737191     4.1394181014    -1.0281165125
 F     -1.9064236284     4.8646414689    -1.5653756822
 H     -3.5939415125     2.8105375985     0.0049631855
 F     -2.6822905308     2.8990990223    -0.0390636447
          4
Energy: -6.3234417780405465 Kcal/mole
 H     -1.8770104307     3.8347395877    -1.3142037193
 F     -1.6017924730     4.5958486298    -1.7453151920
 H     -1.8991874639     2.7631792353     0.6221834718
 F     -2.2093784145     2.5806549998    -0.2212354500
          4
Energy: -6.312708895324306 Kcal/mole
 H     -2.1910891833     3.9211745437    -1.3489748210
 F     -1.8592084164     4.5307113433    -1.9483153307
 H     -1.5957784614     2.4911140528     0.1987894462
 F     -2.4079262237     2.7617395789    -0.1299457616
          4
Energy: -6.320285467656333 Kcal/mole
 H     -1.9022875768     3.3278788946    -1.7155323882
 F     -1.2981073456     3.5157676731    -2.3792740964
 H     -2.4339216648     1.9329550359    -0.0498358185
 F     -2.7818737617     2.6933082833    -0.4262415537
          4
Energy: -6.325446560518458 Kcal/mole
 H     -1.1865607144     3.2839088228    -1.0645355252
 F     -0.4459823512     3.6900640335    -1.4215658219
 H     -2.5125605002     3.1281119767     0.7219092604
 F     -2.4713825206     2.7269748028    -0.1016697229
          4
Energy: -6.3240865620324485 Kcal/mole
 H     -1.3449890512     3.4885857330    -1.2002119629
 F     -0.5934327105     3.8631982942    -1.5686105186
 H     -3.2548438307     3.8238943326    -0.0666242608
 F     -2.8082575376     3.1025104206    -0.4145537569
          4
Energy: -6.320060944304203 Kcal/mole
 H     -1.5079865022     3.2816838367    -1.2933374343
 F     -0.7906876358     3.6189878373    -1.7544202332
 H     -3.2568658877     3.6881855928     0.0712369806
 F     -2.8986768991     2.9750770577    -0.3804995197
          4
Energy: -6.324956318256227 Kcal/mole
 H     -1.5139338038     3.5041451780    -1.0702680045
 F     -0.7382553393     3.8988098299    -1.3591481392
 H     -3.7610631453     3.5897654967    -0.9113364435
 F     -3.0882048340     3.0125356552    -0.6769086231
          4
Energy: -6.308655592083653 Kcal/mole
 H     -1.6452206017     3.9148903945    -1.4715433555
 F     -0.9548108540     4.4965340352    -1.6325217872
 H     -3.5573677833     3.5591925644    -0.2704144636
 F     -3.0693455578     3.1242602965    -0.9134986181
          4
Energy: -6.310460405361027 Kcal/mole
 H     -1.9029811035     4.3062903916    -1.0732880960
 F     -1.1151861616     4.7754177201    -1.0595884929
 H     -3.6646894548     3.7748754036    -2.2748517647
 F     -3.4065013888     3.6007834594    -1.4123438415
          4
Energy: -6.3259717746098545 Kcal/mole
 H     -2.5779250996     4.8360349612    -1.1395647639
 F     -1.8182900444     5.3474105882    -1.0912061967
 H     -3.5286154345     3.0387832211    -2.0307702069
 F     -3.7857663988     3.6918643704    -1.4406453100
          4
Energy: -6.315014362457703 Kcal/mole
 H     -2.4257602922     4.4993040402    -1.3834140739
 F     -1.8647056963     5.2052453035    -1.2168197366
 H     -3.9086746284     2.9947380101    -0.5257652135
 F     -3.5323790264     3.2151585472    -1.3324283444
          4
Energy: -6.314258470263837 Kcal/mole
 H     -2.6339510639     4.4991087480    -1.5281998395
 F     -2.2565585014     5.3078053155    -1.3173119177
 H     -4.2961888831     3.1274694869    -0.9678569823
 F     -3.6210390964     3.1069020849    -1.5880494908
          4
Energy: -6.323119463695548 Kcal/mole
 H     -2.8037584825     4.5010744310    -1.7450401258
 F     -2.2200371367     5.2067190201    -1.6978797161
 H     -3.1239855659     2.3985198657    -1.1376603751
 F     -3.6004409407     3.0112172489    -1.6260057370
          4
Energy: -6.320286590001331 Kcal/mole
 H     -2.6869314373     4.2908371647    -1.7715583726
 F     -1.9803817088     4.8600991905    -1.9042882759
 H     -4.4554045775     3.2138257668    -2.6330477995
 F     -4.0528622920     3.3094702182    -1.8146952792
          4
Energy: -6.320388989738547 Kcal/mole
 H     -2.5095934167     4.2346997534    -1.8689645826
 F     -1.8004891517     4.8135420580    -1.9237526084
 H     -3.8591416882     2.8783716261    -3.0064183620
 F     -3.7422370665     3.1123851327    -2.1275213327
          4
Energy: -6.325699950806495 Kcal/mole
 H     -2.2867675306     4.0285633689    -1.9908538877
 F     -1.4996453325     4.4543320150    -2.1909756135
 H     -4.4606616240     3.7081217617    -2.4986304628
 F     -3.8542072220     3.3990870168    -1.8841391409
          4
Energy: -6.327268942279943 Kcal/mole
 H     -2.2485753074     3.9918585628    -2.0499127567
 F     -1.4779560680     4.4874143034    -2.0881161048
 H     -4.3408236755     3.8488676601    -1.2633580513
 F     -3.7835104663     3.3353152721    -1.7796476325
          4
Energy: -6.327332234451262 Kcal/mole
 H     -2.1515170775     3.7576751562    -1.9479872427
 F     -1.3393419912     4.1792139640    -2.0077004132
 H     -4.3542110415     3.9447996757    -2.2208000029
 F     -3.7772213081     3.2855185135    -1.9500229789
          4
Energy: -6.325597674484925 Kcal/mole
 H     -2.1605671683     3.7360048460    -1.7879284448
 F     -1.3308568378     4.0763168760    -1.9793899022
 H     -4.2878888482     3.6448109483    -2.4155391341
 F     -3.7869195511     3.2896753083    -1.7345123794
          4
Energy: -6.321532935926882 Kcal/mole
 H     -2.2550311040     3.8487115229    -1.7401860851
 F     -1.4145196505     4.0928695212    -2.0137118946
 H     -4.0426217077     2.4990802393    -2.1097854415
 F     -3.8057965625     3.1675520072    -1.5284521927
          4
Energy: -6.3250480102967686 Kcal/mole
 H     -2.2567637226     3.7928891307    -1.7152380539
 F     -1.3678669097     3.9406803370    -1.8852651555
 H     -4.0894143968     2.4997093080    -2.0058465564
 F     -3.8644840297     3.2761178341    -1.5728510245
          4
Energy: -6.322606471394636 Kcal/mole
 H     -2.2146669159     3.6850125627    -1.6656568768
 F     -1.3574602483     3.9585370352    -1.8424903915
 H     -4.3398029408     3.7653188434    -2.3318888215
 F     -3.8818750086     3.3476269608    -1.6560748677
          4
Energy: -6.3266439713639215 Kcal/mole
 H     -2.2433015650     3.6879168661    -1.7122246071
 F     -1.3997034903     3.9838706525    -1.9162899021
 H     -4.4030806127     3.7517674408    -2.2633309558
 F     -3.8971574263     3.3293548121    -1.6257587633
          4
Energy: -6.326994969283817 Kcal/mole
 H     -2.2356839955     3.6655884007    -1.7141876167
 F     -1.3981695989     3.9728761208    -1.9263971651
 H     -4.4132227346     3.7933258416    -2.1839835339
 F     -3.8933915397     3.3219402315    -1.5936784133
          4
Energy: -6.326899275200674 Kcal/mole
 H     -2.2342155111     3.6492587101    -1.7392779109
 F     -1.3947131589     3.9562550405    -1.9439191914
 H     -4.4492794570     3.8426708412    -2.1028532422
 F     -3.8925989993     3.3266745356    -1.5883207547
          4
Energy: -6.327646021771045 Kcal/mole
 H     -2.2364283433     3.6288665898    -1.7855350885
 F     -1.3945957732     3.9573367954    -1.9414653550
 H     -4.4512304672     4.0094977302    -1.8272037404
 F     -3.8924955027     3.3178247547    -1.6029433238
          4
Energy: -6.327982343383951 Kcal/mole
 H     -2.2346342326     3.6242673787    -1.7856197354
 F     -1.3946909466     3.9575807729    -1.9414608647
 H     -4.4423891929     4.0164810439    -1.8273950635
 F     -3.8929645119     3.3174543060    -1.6029331746
