          4
Energy: -6.327975455109026 Kcal/mole
 H     -3.5584070471     1.5261286918     2.2749878144
 F     -4.4417301521     1.6285535811     2.4989039463
 H     -1.4323816149     1.5350694187     2.9895844140
 F     -1.8683548911     1.4010199976     2.1940675662
