          4
Energy: -6.327648841933808 Kcal/mole
 H     -2.5637231627     4.9951684774    -1.1009941351
 F     -2.9783724590     4.7924412831    -1.8933681918
 H     -0.6493700568     5.5297622736    -0.0572270454
 F     -1.5252902606     5.3919785634     0.1765857981
          4
Energy: -6.327651497957788 Kcal/mole
 H     -2.5282154660     4.9564148029    -1.1065701856
 F     -2.9621111869     4.8241288149    -1.9035168091
 H     -0.7765250004     5.8707301570    -0.0607386422
 F     -1.5069153902     5.3703009447     0.1779860568
          4
Energy: -6.327945109654195 Kcal/mole
 H     -2.5365261963     4.9534303702    -1.1024324474
 F     -2.9781312248     4.8332862572    -1.8970640544
 H     -0.8028042620     5.9082833087    -0.0577671660
 F     -1.5055213361     5.3683088367     0.1778284269
          4
Energy: -6.327821496199135 Kcal/mole
 H     -2.5327178529     4.9379151120    -1.1005762651
 F     -2.9560864636     4.7727789862    -1.8970548143
 H     -0.7316743331     5.7927619875    -0.0689637220
 F     -1.5092946145     5.3744369759     0.1784223783
          4
Energy: -6.327047144317362 Kcal/mole
 H     -2.5254362199     4.9369504444    -1.1026052109
 F     -2.9413432814     4.7554786494    -1.8994604699
 H     -0.7032979385     5.7397720131    -0.0580219142
 F     -1.5123427189     5.3839410374     0.1863545578
          4
Energy: -6.327553632928982 Kcal/mole
 H     -2.5468598427     4.9480958791    -1.0856524770
 F     -2.9649884663     4.7505924351    -1.8775172657
 H     -0.6682550207     5.6381152654    -0.0650106859
 F     -1.5142016648     5.3893336930     0.1867252960
          4
Energy: -6.327397153902268 Kcal/mole
 H     -2.5532589812     4.9847711821    -1.0873254256
 F     -2.9742979110     4.7816277557    -1.8762157652
 H     -0.6140387448     5.4824115981    -0.0853012600
 F     -1.4876461960     5.3697924097     0.1696809741
          4
Energy: -6.327481428960084 Kcal/mole
 H     -2.5467546166     4.9887947987    -1.0918858975
 F     -2.9746429525     4.7814143121    -1.8759738427
 H     -0.5950423058     5.4531911194    -0.0771444987
 F     -1.4764493768     5.3840891151     0.1662389195
          4
Energy: -6.327269995097538 Kcal/mole
 H     -2.5451219207     4.9290160949    -1.0716357086
 F     -2.9936391802     4.7360945819    -1.8478460910
 H     -0.6591552476     5.6978273865    -0.1206461944
 F     -1.4673883613     5.3703924540     0.1629637470
          4
Energy: -6.327111594866096 Kcal/mole
 H     -2.5478138017     5.0242662832    -1.1004773664
 F     -2.9934963821     4.7310417795    -1.8463161077
 H     -0.6502824107     4.9594920335     0.0872979905
 F     -1.4618112926     5.3819539449     0.1492318851
          4
Energy: -6.327842557740212 Kcal/mole
 H     -2.5417999429     5.0378078047    -1.1096086601
 F     -2.9938154035     4.7303234331    -1.8458317137
 H     -0.6707649741     4.9172235043     0.1078999105
 F     -1.4589598132     5.3842236189     0.1472545607
          4
Energy: -6.327715485621923 Kcal/mole
 H     -2.5475602087     5.0343049876    -1.1046591258
 F     -2.9935098347     4.7305092494    -1.8460942750
 H     -0.6738168762     4.9634904811     0.1314771926
 F     -1.4806343209     5.3982259164     0.1621319198
          4
Energy: -6.32687804310433 Kcal/mole
 H     -2.5549357631     5.0433056971    -1.1040073797
 F     -2.9931185786     4.7300317826    -1.8461288487
 H     -0.6667719636     4.9901476590     0.1217013128
 F     -1.4808277239     5.4100910370     0.1647103641
          4
Energy: -6.326163915907273 Kcal/mole
 H     -2.5627450296     4.9473458885    -1.0537034975
 F     -2.9913224025     4.6779390640    -1.8183147702
 H     -0.5939151597     5.3101374306    -0.0286094166
 F     -1.4846926090     5.3931163190     0.1726840010
          4
Energy: -6.327842432985108 Kcal/mole
 H     -2.5568695904     4.9844753732    -1.0776359924
 F     -2.9861267592     4.6964318009    -1.8350382525
 H     -0.6160318938     5.1278424153     0.0459635046
 F     -1.4867079130     5.3832606928     0.1785296133
          4
Energy: -6.327576030984176 Kcal/mole
 H     -2.5720153133     4.9681061741    -1.0598430923
 F     -2.9971857051     4.6527346574    -1.8086153837
 H     -0.6644242155     5.0087857122     0.1201918931
 F     -1.5041965652     5.3691539254     0.1963900005
          4
Energy: -6.327546638032288 Kcal/mole
 H     -2.5696200731     4.9659543243    -1.0542310597
 F     -3.0033674961     4.6596313251    -1.8018395089
 H     -0.6513566205     5.0110409931     0.0833412863
 F     -1.4939999473     5.3555776872     0.1935033954
          4
Energy: -6.327607639177074 Kcal/mole
 H     -2.5671725773     4.9562688171    -1.0517571317
 F     -3.0034973301     4.6601451189    -1.8019707450
 H     -0.6140972568     5.0952323679     0.0359561847
 F     -1.4775525252     5.3691291258     0.1784853588
          4
Energy: -6.327626390059493 Kcal/mole
 H     -2.5671672051     4.9759833636    -1.0645240440
 F     -3.0108331291     4.6699570215    -1.8064117888
 H     -0.6272104927     5.0456477808     0.0645363805
 F     -1.4768568984     5.3717594735     0.1769692455
          4
Energy: -6.326300745273841 Kcal/mole
 H     -2.5705919739     4.9207497395    -1.0458437940
 F     -2.9980212096     4.6572989299    -1.8131683143
 H     -0.5984594281     5.3490038880    -0.0737285497
 F     -1.4783820759     5.3556671330     0.1843038805
          4
Energy: -6.327773023700786 Kcal/mole
 H     -2.5459668970     4.8819529977    -1.0447023710
 F     -3.0000122120     4.6760241962    -1.8143290211
 H     -0.6450196787     5.6631166546    -0.1330294588
 F     -1.4561602241     5.3568527512     0.1655378487
          4
Energy: -6.327096334277769 Kcal/mole
 H     -2.5145980719     4.8188559959    -1.0538165228
 F     -2.9957322060     4.6543158053    -1.8169190524
 H     -0.8669892606     6.0023240294    -0.1145381077
 F     -1.4574809395     5.3576588655     0.1622567685
          4
Energy: -6.327216244203555 Kcal/mole
 H     -2.5508966209     4.8696200541    -1.0527983826
 F     -3.0051652850     4.6689347706    -1.8236773600
 H     -0.6697737634     5.6961161273    -0.1660328668
 F     -1.4600218468     5.3590958089     0.1546137796
          4
Energy: -6.327484592094095 Kcal/mole
 H     -2.5706348132     4.9584337264    -1.0672104958
 F     -3.0085053675     4.6932481835    -1.8280225656
 H     -0.5862522762     5.3741975151    -0.1142561410
 F     -1.4666276292     5.3981826826     0.1411904279
          4
Energy: -6.326859179256246 Kcal/mole
 H     -2.5639317706     4.9579412614    -1.0709375253
 F     -3.0088609484     4.6932743076    -1.8278248553
 H     -0.5890838938     5.3875951027    -0.1246632966
 F     -1.4664774185     5.3974719716     0.1417425035
          4
Energy: -6.32721367245648 Kcal/mole
 H     -2.5623310794     4.8804936711    -1.0514051531
 F     -3.0178253755     4.6667909210    -1.8180504954
 H     -0.6781725033     5.7351598346    -0.1720771235
 F     -1.4617514736     5.3790344657     0.1442576974
          4
Energy: -6.327271641750656 Kcal/mole
 H     -2.5180954417     4.8244110293    -1.0618428450
 F     -3.0031040410     4.6491813036    -1.8200975528
 H     -0.8338562170     5.9771247576    -0.1464279179
 F     -1.4534928123     5.3661987856     0.1428970663
          4
Energy: -6.32722128940685 Kcal/mole
 H     -2.5347404189     4.8446492378    -1.0569539745
 F     -2.9872514362     4.6252808698    -1.8237657496
 H     -0.6785313423     5.7406307672    -0.1667088879
 F     -1.4617324380     5.3787442453     0.1439729249
          4
Energy: -6.3278865211621 Kcal/mole
 H     -2.5398174379     4.8984779431    -1.0654971434
 F     -2.9772636548     4.6323667569    -1.8262301084
 H     -0.5888462258     5.4861793559    -0.1399061420
 F     -1.4570600181     5.3920412485     0.1397933889
          4
Energy: -6.3276355643685065 Kcal/mole
 H     -2.5398492176     4.9399952430    -1.0813693677
 F     -2.9772619689     4.6301643601    -1.8253881235
 H     -0.5777586295     5.2027181916    -0.0253006314
 F     -1.4586725201     5.3939076029     0.1430036356
          4
Energy: -6.327567747995715 Kcal/mole
 H     -2.5484137226     4.9337230655    -1.0664712716
 F     -2.9905180873     4.6101766077    -1.8018286135
 H     -0.5871537512     5.1611136889    -0.0214766027
 F     -1.4581741306     5.3961146256     0.1428007797
          4
Energy: -6.327708510322282 Kcal/mole
 H     -2.5610606733     4.8998842176    -1.0475521150
 F     -2.9949063443     4.5930437600    -1.7948913066
 H     -0.5806463553     5.2742496243    -0.0545960230
 F     -1.4663432590     5.3843892226     0.1558778795
          4
Energy: -6.327826106337625 Kcal/mole
 H     -2.5464256240     4.8874216326    -1.0563541298
 F     -2.9756098256     4.6023906852    -1.8149365446
 H     -0.5842094730     5.3828453213    -0.0931631399
 F     -1.4661542439     5.3786284718     0.1579237759
          4
Energy: -6.32779040958502 Kcal/mole
 H     -2.5509037858     4.8770760696    -1.0487918225
 F     -2.9859710856     4.5909582951    -1.8036044242
 H     -0.5850896099     5.3961940302    -0.0956422752
 F     -1.4661075546     5.3779203537     0.1580552883
          4
Energy: -6.327725472952807 Kcal/mole
 H     -2.5593603801     4.9249511136    -1.0588979115
 F     -2.9957236065     4.6226370200    -1.8066159890
 H     -0.5861323917     5.2177643152    -0.0394961824
 F     -1.4660522375     5.3873856378     0.1550768678
          4
Energy: -6.327746425708483 Kcal/mole
 H     -2.5581133621     4.9244474992    -1.0594235118
 F     -2.9957897580     4.6226637356    -1.8065881071
 H     -0.5840699953     5.3450523067    -0.0887594384
 F     -1.4683105346     5.4120654806     0.1447291120
          4
Energy: -6.32772293039983 Kcal/mole
 H     -2.5588375087     4.9224641550    -1.0582024279
 F     -2.9957513436     4.6227689474    -1.8066528828
 H     -0.5876602860     5.3916467639    -0.1117164512
 F     -1.4694169658     5.4312514200     0.1369311487
          4
Energy: -6.3275127931063935 Kcal/mole
 H     -2.5454167038     4.8957306850    -1.0546031031
 F     -2.9735316634     4.5955708663    -1.8079361401
 H     -0.5938381487     5.4575408458    -0.1338110637
 F     -1.4690892444     5.4277558912     0.1381032169
          4
Energy: -6.327679555247812 Kcal/mole
 H     -2.5236395048     4.8643677786    -1.0554578547
 F     -2.9707336331     4.5915868285    -1.8081771874
 H     -0.6532162253     5.7701778452    -0.2122901567
 F     -1.4521312402     5.4626640625     0.1164332412
          4
Energy: -6.327760280152177 Kcal/mole
 H     -2.5280957498     4.8640669888    -1.0470359817
 F     -2.9778852300     4.6023930154    -1.8020890628
 H     -0.6858869503     5.8295439401    -0.2283863060
 F     -1.4503981337     5.4595148284     0.1172871048
          4
Energy: -6.327708593438615 Kcal/mole
 H     -2.5210020144     4.8596073598    -1.0529023695
 F     -2.9775893230     4.5940246204    -1.8024908153
 H     -0.6796129804     5.8287564889    -0.2150203517
 F     -1.4507309533     5.4595566008     0.1165780718
          4
Energy: -6.327190522807655 Kcal/mole
 H     -2.5261856843     4.8659299830    -1.0520325269
 F     -2.9773143413     4.5936892199    -1.8025369584
 H     -0.6780922444     5.8245861600    -0.2078165087
 F     -1.4566045081     5.4633000720     0.1151076588
          4
Energy: -6.327009377067782 Kcal/mole
 H     -2.4935029890     4.7969588270    -1.0519984698
 F     -2.9736854900     4.5807372734    -1.8027061396
 H     -0.9064166245     6.1242110919    -0.1912197143
 F     -1.4444924273     5.4474056617     0.1142272373
          4
Energy: -6.3277519417981125 Kcal/mole
 H     -2.5174465110     4.8519087935    -1.0571248914
 F     -2.9554976808     4.5802586995    -1.8155485191
 H     -0.6796717472     5.8165987913    -0.2202024144
 F     -1.4565207191     5.4637237835     0.1157647025
          4
Energy: -6.327955558770782 Kcal/mole
 H     -2.4519492067     4.7837977671    -1.0793538043
 F     -2.9527406241     4.5816768650    -1.8204638483
 H     -1.0489374480     6.2404602353    -0.1168614895
 F     -1.4369320269     5.4412389133     0.1102827053
          4
Energy: -6.327564956511253 Kcal/mole
 H     -2.4479789704     4.7751230236    -1.0818057593
 F     -2.9670230958     4.5836306094    -1.8131147578
 H     -1.1392635590     6.2884886826    -0.0735532065
 F     -1.4321404355     5.4386911152     0.1079853009
          4
Energy: -6.327170682782082 Kcal/mole
 H     -2.4452739554     4.7697524748    -1.0823456068
 F     -2.9671665906     4.5839155046    -1.8130861201
 H     -1.1443391149     6.2908515214    -0.0705641465
 F     -1.4318711890     5.4385657720     0.1078267382
          4
Energy: -6.327758571160757 Kcal/mole
 H     -2.4330921366     4.7866131832    -1.0859541021
 F     -2.9487746829     4.5897317311    -1.8182096622
 H     -1.1351922741     6.2953232873    -0.0415891745
 F     -1.4336921932     5.4429259147     0.1171732815
          4
Energy: -6.327749686995276 Kcal/mole
 H     -2.4203179059     4.7786566276    -1.0930095774
 F     -2.9494523264     4.5901538080    -1.8178353855
 H     -1.1861236052     6.3132442089    -0.0121783416
 F     -1.4232310060     5.4363539681     0.1132512643
          4
Energy: -6.327885370801596 Kcal/mole
 H     -2.4700980928     4.8051326888    -1.0663792402
 F     -2.9468116025     4.5887493141    -1.8192480634
 H     -0.9132234857     6.1337170700    -0.1582607514
 F     -1.4458010133     5.4419381712     0.1222604283
          4
Energy: -6.327733066595044 Kcal/mole
 H     -2.4799800184     4.8177429547    -1.0639300835
 F     -2.9462873892     4.5880803687    -1.8193779855
 H     -0.8429210449     6.0652108112    -0.1751109809
 F     -1.4495303953     5.4455722699     0.1231542940
          4
Energy: -6.327624239969907 Kcal/mole
 H     -2.4829409635     4.8160321811    -1.0675035808
 F     -2.9513130029     4.5867932255    -1.8218020190
 H     -0.8349439323     6.0584352359    -0.1727601535
 F     -1.4499535627     5.4459316985     0.1230295881
          4
Energy: -6.3275575364855285 Kcal/mole
 H     -2.4485913798     4.7890928488    -1.0821247902
 F     -2.9531351689     4.5882222948    -1.8210263976
 H     -1.0417395244     6.2334310885    -0.1155797457
 F     -1.4367918319     5.4369595765     0.1090439503
          4
Energy: -6.32758628276008 Kcal/mole
 H     -2.4569837125     4.7864331903    -1.0786814937
 F     -2.9574733166     4.5757121473    -1.8175967786
 H     -0.9754118383     6.1906297194    -0.1437866936
 F     -1.4322609240     5.4357390207     0.1058489328
          4
Energy: -6.327541816786038 Kcal/mole
 H     -2.4726833967     4.7949139647    -1.0707379841
 F     -2.9566404847     4.5752622618    -1.8180181635
 H     -0.8874661897     6.1109488450    -0.1896518337
 F     -1.4369262374     5.4399659069     0.1082819725
          4
Energy: -6.327796023017925 Kcal/mole
 H     -2.4635464867     4.7836626967    -1.0739798562
 F     -2.9584700430     4.5656295740    -1.8145210305
 H     -0.9481966275     6.1775164912    -0.1749464761
 F     -1.4254351842     5.4424030965     0.0947582827
          4
Energy: -6.3277761351000095 Kcal/mole
 H     -2.4573242084     4.7693430368    -1.0759090380
 F     -2.9522255475     4.5449067930    -1.8145497064
 H     -0.9496104617     6.1761475125    -0.1838656284
 F     -1.4261718065     5.4426968197     0.0915038794
          4
Energy: -6.32788888706051 Kcal/mole
 H     -2.4405909292     4.7674906766    -1.0852755507
 F     -2.9492629063     4.5537988800    -1.8177218872
 H     -1.0452130800     6.2442434324    -0.1374885795
 F     -1.4211003085     5.4390844885     0.0890436842
          4
Energy: -6.327684548573984 Kcal/mole
 H     -2.4603373897     4.7819499460    -1.0810498319
 F     -2.9503224923     4.5579236783    -1.8230847573
 H     -0.9175890940     6.1491934661    -0.1965822208
 F     -1.4278704660     5.4441266696     0.0921784653
          4
Energy: -6.32784154938355 Kcal/mole
 H     -2.4931815888     4.8192779355    -1.0724383210
 F     -2.9485801834     4.5559435147    -1.8235415781
 H     -0.7224901850     5.9217355941    -0.2400166273
 F     -1.4382200123     5.4561927841     0.0944825602
          4
Energy: -6.327638744457431 Kcal/mole
 H     -2.4828051531     4.8100429025    -1.0756342680
 F     -2.9491306293     4.5564334118    -1.8233720405
 H     -0.7801601259     6.0111151250    -0.2281649707
 F     -1.4324632676     5.4513610762     0.0913111883
          4
Energy: -6.327357374437497 Kcal/mole
 H     -2.4668906482     4.7758056154    -1.0769744303
 F     -2.9498062596     4.5397296797    -1.8199075800
 H     -0.8798554205     6.1154582306    -0.2142595474
 F     -1.4271746626     5.4458259156     0.0905735377
          4
Energy: -6.327776070106552 Kcal/mole
 H     -2.4843289758     4.8143810030    -1.0723504157
 F     -2.9311026462     4.5349574642    -1.8228201175
 H     -0.6843974147     5.8737120167    -0.2553618944
 F     -1.4293503746     5.4622073155     0.0861025524
          4
Energy: -6.327553916876184 Kcal/mole
 H     -2.4876911322     4.8333234506    -1.0783212597
 F     -2.9262125468     4.5432316668    -1.8296099697
 H     -0.6597007297     5.8326186431    -0.2473619020
 F     -1.4306604767     5.4643872240     0.0856781713
          4
Energy: -6.3279367416015475 Kcal/mole
 H     -2.4849005656     4.8275648503    -1.0777554713
 F     -2.9263605799     4.5435371473    -1.8296399835
 H     -0.6659803652     5.8408400763    -0.2525960462
 F     -1.4303273566     5.4639510960     0.0859558306
          4
Energy: -6.327912823274346 Kcal/mole
 H     -2.4874215954     4.8340359999    -1.0787542578
 F     -2.9262268451     4.5431938677    -1.8295870002
 H     -0.6448194560     5.7997757297    -0.2471708497
 F     -1.4314498939     5.4661294647     0.0856680365
          4
Energy: -6.327892919505871 Kcal/mole
 H     -2.4816382524     4.8254987287    -1.0789017753
 F     -2.9265336381     4.5436467502    -1.8295791747
 H     -0.6813084716     5.8704877425    -0.2524648727
 F     -1.4295142359     5.4623783558     0.0859488721
          4
Energy: -6.327803214155267 Kcal/mole
 H     -2.4936941507     4.8478841200    -1.0806171248
 F     -2.9258941006     4.5424592570    -1.8294881794
 H     -0.6089231765     5.7071918096    -0.2394496577
 F     -1.4333541086     5.4710408277     0.0852584451
          4
Energy: -6.327772782092268 Kcal/mole
 H     -2.4902035942     4.8356355441    -1.0777559078
 F     -2.9260792665     4.5431090156    -1.8296399603
 H     -0.6495807564     5.8013049822    -0.2567073033
 F     -1.4311973179     5.4660483414     0.0861739233
          4
Energy: -6.327735901423807 Kcal/mole
 H     -2.4849232225     4.8350999936    -1.0806341661
 F     -2.9263593780     4.5431374253    -1.8294872754
 H     -0.6477210914     5.8120075439    -0.2414655880
 F     -1.4312959688     5.4654805952     0.0853653855
          4
Energy: -6.327421192291922 Kcal/mole
 H     -2.4852603686     4.8384285914    -1.0817419094
 F     -2.9263414932     4.5429608509    -1.8294285122
 H     -0.6451090890     5.8088795445    -0.2384787088
 F     -1.4314345295     5.4656465284     0.0852069385
          4
Energy: -6.327867353021645 Kcal/mole
 H     -2.4946909778     4.8556520172    -1.0832579614
 F     -2.9258412212     4.5420471880    -1.8293480891
 H     -0.5966092079     5.6823656171    -0.2237834589
 F     -1.4356840573     5.4767147075     0.0837065418
          4
Energy: -6.327796042360944 Kcal/mole
 H     -2.4982665558     4.8578720930    -1.0821382600
 F     -2.9256515450     4.5419294181    -1.8294074867
 H     -0.6045993562     5.7073171192    -0.2441684435
 F     -1.4332935448     5.4861891189     0.0802654471
          4
Energy: -6.327758913068919 Kcal/mole
 H     -2.4987332306     4.8600490497    -1.0827955614
 F     -2.9256267890     4.5418139355    -1.8293726184
 H     -0.5936766223     5.6742458893    -0.2367516012
 F     -1.4338729706     5.4879434712     0.0798720007
          4
Energy: -6.327751216506158 Kcal/mole
 H     -2.4994344398     4.8691424229    -1.0863382554
 F     -2.9255895915     4.5413315531    -1.8291846866
 H     -0.5805441492     5.6283217695    -0.2248973775
 F     -1.4345696179     5.4903796397     0.0792431615
          4
Energy: -6.327904582648728 Kcal/mole
 H     -2.4913833189     4.8534498659    -1.0842556030
 F     -2.9260166848     4.5421640070    -1.8292951665
 H     -0.6126402966     5.7421798686    -0.2388216274
 F     -1.4328669915     5.4843397306     0.0799818108
          4
Energy: -6.327948905593473 Kcal/mole
 H     -2.5028592003     4.8854334266    -1.0917800181
 F     -2.9254079158     4.5404673530    -1.8288960137
 H     -0.5570952032     5.5264862651    -0.1833460187
 F     -1.4358135303     5.4957817779     0.0770389580
          4
Energy: -6.327950042109137 Kcal/mole
 H     -2.5040321915     4.8871372663    -1.0919080611
 F     -2.9253456914     4.5403769682    -1.8288892213
 H     -0.5576285649     5.5264967805    -0.1851376424
 F     -1.4357852367     5.4957812200     0.0771339995
          4
Energy: -6.3279403671622845 Kcal/mole
 H     -2.5029698046     4.8910124877    -1.0943545599
 F     -2.9254020485     4.5401713967    -1.8287594402
 H     -0.5551039731     5.5064632155    -0.1753126004
 F     -1.4375391004     5.5016605193     0.0740349084
          4
Energy: -6.327935231931406 Kcal/mole
 H     -2.5021427636     4.8822783094    -1.0907224120
 F     -2.9254459212     4.5406347247    -1.8289521173
 H     -0.5631329531     5.5599240742    -0.1956524438
 F     -1.4371131816     5.4988245443     0.0751138901
          4
Energy: -6.327970085917286 Kcal/mole
 H     -2.5018031323     4.8809119459    -1.0902863708
 F     -2.9254639378     4.5407072071    -1.8289752482
 H     -0.5679085801     5.5832942215    -0.2045338660
 F     -1.4368598456     5.4975848120     0.0755850291
          4
Energy: -6.327944782383383 Kcal/mole
 H     -2.5035716352     4.8939378974    -1.0954131150
 F     -2.9253701228     4.5400162105    -1.8287032863
 H     -0.5548137535     5.5067880006    -0.1742765974
 F     -1.4375544959     5.5016432902     0.0739799509
          4
Energy: -6.327951287095232 Kcal/mole
 H     -2.5045198734     4.8945597027    -1.0951687552
 F     -2.9253198210     4.5399832251    -1.8287162490
 H     -0.5537893943     5.4875298946    -0.1702094224
 F     -1.4376088358     5.5026648883     0.0737641966
          4
Energy: -6.3279447332311065 Kcal/mole
 H     -2.5039430732     4.8940705647    -1.0952636183
 F     -2.9253504189     4.5400091728    -1.8287112168
 H     -0.5547243106     5.5055813738    -0.1739802740
 F     -1.4375592406     5.5017072990     0.0739642316
          4
Energy: -6.327953479171981 Kcal/mole
 H     -2.5050944264     4.8941675708    -1.0946501572
 F     -2.9252893423     4.5400040268    -1.8287437595
 H     -0.5550438079     5.4989051952    -0.1751245475
 F     -1.4375422920     5.5020614549     0.0740249327
          4
Energy: -6.32797260570112 Kcal/mole
 H     -2.5020284977     4.8887918915    -1.0938395368
 F     -2.9254519827     4.5402891942    -1.8287867610
 H     -0.5578230960     5.5306198132    -0.1830945351
 F     -1.4373948572     5.5003790677     0.0744477221
          4
Energy: -6.32798346419537 Kcal/mole
 H     -2.5041143945     4.8954400844    -1.0958278967
 F     -2.9253413307     4.5399365229    -1.8286812831
 H     -0.5533597920     5.4881817041    -0.1686872639
 F     -1.4376316252     5.5026303113     0.0736834497
          4
Energy: -6.327982904811279 Kcal/mole
 H     -2.5043888524     4.8991984146    -1.0975055165
 F     -2.9253267713     4.5397371522    -1.8285922892
 H     -0.5513588947     5.4674539939    -0.1590058240
 F     -1.4377377682     5.5037298684     0.0731698716
          4
Energy: -6.327980164225721 Kcal/mole
 H     -2.5042011159     4.9008379693    -1.0984223137
 F     -2.9253367303     4.5396501776    -1.8285436553
 H     -0.5507228923     5.4553788239    -0.1543094904
 F     -1.4377715066     5.5043704283     0.0729207420
          4
Energy: -6.327985623249447 Kcal/mole
 H     -2.5042460184     4.9005776284    -1.0982676920
 F     -2.9253343484     4.5396639881    -1.8285518576
 H     -0.5505195713     5.4570809566    -0.1538755175
 F     -1.4377822923     5.5042801341     0.0728977207
