          4
Energy: -6.327927304581408 Kcal/mole
 H     -5.0542987645     4.8718758806    -3.9606234029
 F     -4.5767425649     4.8613281288    -4.7433863435
 H     -6.2830300118     6.0911745812    -2.5420218313
 F     -5.9897436871     5.2238308879    -2.5928848768
