          4
Energy: -6.327941091058676 Kcal/mole
 H     -3.0622724550     5.5055614117     5.2829539247
 F     -3.4081822004     5.9970222259     5.9755589465
 H     -2.2516884130     6.7658162217     6.9459381849
 F     -1.5030745906     7.1024742036     7.3547507926
