          4
Energy: -6.327988017714347 Kcal/mole
 H     -2.2877787200     5.0912939732    -1.1859337589
 F     -2.3648375527     4.6460062644    -1.9838496647
 H     -0.9740786423     6.3225786180     0.1472135348
 F     -1.8271646521     5.9875738803     0.1772981772
