          6
Energy: -17.580025297751035 Kcal/mole
 H      5.9549309318     3.8010844892     3.4702930915
 F      5.6792791609     4.6530763712     3.6678150757
 H      5.6873100067     3.0341712140     1.6146592827
 F      6.0921686698     2.5225874040     2.2590663498
 H      5.0663818554     4.9173834285     2.0302985550
 F      4.9389974004     4.5752793202     1.1890928847
          6
Energy: -17.580103099506857 Kcal/mole
 H      5.9581438619     3.8023137001     3.4695080022
 F      5.6791087224     4.6530111644     3.6678567228
 H      5.6878198022     3.0342895307     1.6144331909
 F      6.0921416263     2.5225811276     2.2590783435
 H      5.0626596259     4.9156419062     2.0315588982
 F      4.9391948561     4.5753717040     1.1890260264
          6
Energy: -17.57988369229514 Kcal/mole
 H      5.9558640837     3.8018824037     3.4681696626
 F      5.6792296593     4.6530340437     3.6679277187
 H      5.6862816237     3.0331350952     1.6163717105
 F      6.0932068211     2.5246050379     2.2618932551
 H      5.0679716285     4.9163809964     2.0304632586
 F      4.9389130666     4.5753324969     1.1890841475
          6
Energy: -17.579763140449074 Kcal/mole
 H      5.9572553242     3.8012238653     3.4729692568
 F      5.6791558572     4.6530689776     3.6676731113
 H      5.6883008920     3.0356094197     1.6170567297
 F      6.0930997036     2.5244737808     2.2618569164
 H      5.0665341600     4.9180389815     2.0300085529
 F      4.9389893210     4.5752445446     1.1891082686
          6
Energy: -17.57979867470118 Kcal/mole
 H      5.9582475435     3.8021708158     3.4702682936
 F      5.6791032223     4.6530187441     3.6678163911
 H      5.6865392846     3.0368036561     1.6191164873
 F      6.0931931528     2.5244104293     2.2617476510
 H      5.0677271791     4.9179332633     2.0298697859
 F      4.9389260341     4.5752501528     1.1891156299
          6
Energy: -17.579828264069704 Kcal/mole
 H      5.9570471793     3.8015919822     3.4710716392
 F      5.6791668988     4.6530494499     3.6677737755
 H      5.6899431964     3.0342887273     1.6149859186
 F      6.0930125832     2.5245438404     2.2619667681
 H      5.0619774024     4.9151094836     2.0318733686
 F      4.9392310464     4.5753999477     1.1890093444
          6
Energy: -17.579566300625288 Kcal/mole
 H      5.9628714435     3.8040706274     3.4686927249
 F      5.6788579351     4.6529179635     3.6678999714
 H      5.6898167093     3.0348521227     1.6155091035
 F      6.0930192930     2.5245139536     2.2619390144
 H      5.0626007243     4.9139532993     2.0322474198
 F      4.9391979807     4.5754612806     1.1889895019
          6
Energy: -17.57987982198358 Kcal/mole
 H      5.9565764644     3.8023788509     3.4670461968
 F      5.6791918692     4.6530077083     3.6679873159
 H      5.6887596606     3.0332094743     1.6148750352
 F      6.0930753670     2.5246010923     2.2619726502
 H      5.0635791906     4.9183775054     2.0303131553
 F      4.9391460753     4.5752265867     1.1890921101
          6
Energy: -17.579579825906706 Kcal/mole
 H      5.9624575582     3.8046792860     3.4605343785
 F      5.6850048309     4.6549551147     3.6628707301
 H      5.6900897003     3.0342633943     1.6148747151
 F      6.0930048115     2.5245451843     2.2619726672
 H      5.0666864822     4.9175157788     2.0301985251
 F      4.9389812406     4.5752722993     1.1890981910
          6
Energy: -17.579622290636735 Kcal/mole
 H      5.9636171989     3.8045990200     3.4624751488
 F      5.6849433146     4.6549593727     3.6627677767
 H      5.6893140788     3.0360026609     1.6167334354
 F      6.0930459564     2.5244529202     2.2618740664
 H      5.0679255735     4.9183846183     2.0296552435
 F      4.9389155097     4.5752262094     1.1891270108
          6
Energy: -17.579793753359354 Kcal/mole
 H      5.9628039858     3.8040455253     3.4637000979
 F      5.6849864537     4.6549887343     3.6627027960
 H      5.6860355673     3.0313408211     1.6151172825
 F      6.0932198739     2.5247002200     2.2619597996
 H      5.0688184274     4.9136578418     2.0314315088
 F      4.9388681459     4.5754769540     1.1890327841
          6
Energy: -17.57974862922498 Kcal/mole
 H      5.9604343889     3.8025697535     3.4667476735
 F      5.6851121554     4.6550670206     3.6625411292
 H      5.6852834223     3.0352235979     1.6186548653
 F      6.0932597734     2.5244942477     2.2617721390
 H      5.0675896172     4.9166322817     2.0304198659
 F      4.9389333314     4.5753191668     1.1890864494
          6
Energy: -17.579852853395266 Kcal/mole
 H      5.9623271612     3.8040913979     3.4628408348
 F      5.6850117482     4.6549863009     3.6627483779
 H      5.6858473080     3.0323059415     1.6159931347
 F      6.0932298606     2.5246490226     2.2619133376
 H      5.0689386217     4.9144099304     2.0311106145
 F      4.9388617698     4.5754370574     1.1890498068
          6
Energy: -17.57944925095802 Kcal/mole
 H      5.9597330968     3.8027788739     3.4648620042
 F      5.6851493573     4.6550559272     3.6626411596
 H      5.6919431680     3.0350206378     1.6143206460
 F      6.0929064893     2.5245050143     2.2620020593
 H      5.0647894382     4.9132211892     2.0322176723
 F      4.9390818744     4.5755001174     1.1889910799
          6
Energy: -17.580021073745627 Kcal/mole
 H      5.9621229797     3.8037079076     3.4641952232
 F      5.6850225795     4.6550066441     3.6626765308
 H      5.6869893003     3.0342287510     1.6167886918
 F      6.0931692805     2.5245470220     2.2618711352
 H      5.0659948898     4.9155857295     2.0310857429
 F      4.9390179280     4.5753746840     1.1890511262
          6
Energy: -17.57980058194329 Kcal/mole
 H      5.9603174537     3.8031071968     3.4642606252
 F      5.6851183585     4.6550385104     3.6626730613
 H      5.6893802461     3.0349522426     1.6158606478
 F      6.0930424464     2.5245086425     2.2619203658
 H      5.0648501779     4.9145791762     2.0316633836
 F      4.9390786523     4.5754280793     1.1890204837
          6
Energy: -17.579664824711756 Kcal/mole
 H      5.9609346016     3.8060433992     3.4669746477
 F      5.6846022352     4.6574378590     3.6661150429
 H      5.6827826039     3.0340291320     1.6192993648
 F      6.0933924361     2.5245576114     2.2617379498
 H      5.0671562693     4.9200007920     2.0291113018
 F      4.9389563195     4.5751404751     1.1891558657
          6
Energy: -17.580108926034086 Kcal/mole
 H      5.9629957926     3.8061955232     3.4692089192
 F      5.6844928938     4.6574297892     3.6659965200
 H      5.6877999538     3.0365694113     1.6181341079
 F      6.0931262772     2.5244228554     2.2617997640
 H      5.0651721517     4.9182967648     2.0301088423
 F      4.9390615724     4.5752308698     1.1891029485
          6
Energy: -17.58001753225227 Kcal/mole
 H      5.9630522516     3.8059556019     3.4703301645
 F      5.6844898988     4.6574425165     3.6659370405
 H      5.6885855065     3.0359820941     1.6171736629
 F      6.0930846055     2.5244540112     2.2618507134
 H      5.0637074655     4.9175448157     2.0306333433
 F      4.9391392706     4.5752707590     1.1890751249
          6
Energy: -17.57974596444393 Kcal/mole
 H      5.9588657704     3.8049515105     3.4687953211
 F      5.6847119819     4.6574957812     3.6660184604
 H      5.6865776934     3.0331806536     1.6162210552
 F      6.0931911153     2.5246026212     2.2619012470
 H      5.0690725726     4.9150205778     2.0308438166
 F      4.9388546641     4.5754046640     1.1890639598
          6
Energy: -17.579969995782676 Kcal/mole
 H      5.9585512137     3.8046949750     3.4640472534
 F      5.6824872393     4.6561102570     3.6634706712
 H      5.6896103921     3.0332881663     1.6144061097
 F      6.0930302377     2.5245969179     2.2619975257
 H      5.0681413150     4.9151621269     2.0309302086
 F      4.9389040651     4.5753971551     1.1890593769
          6
Energy: -17.58006683701217 Kcal/mole
 H      5.9622281970     3.8052831457     3.4666811396
 F      5.6822921839     4.6560790559     3.6633309496
 H      5.6858495114     3.0332783256     1.6167572308
 F      6.0932297437     2.5245974399     2.2618728041
 H      5.0654672367     4.9142277638     2.0317124040
 F      4.9390459188     4.5754467209     1.1890178832
          6
Energy: -17.580143574921692 Kcal/mole
 H      5.9595910360     3.8040053845     3.4684869695
 F      5.6824320792     4.6561468382     3.6632351545
 H      5.6867994449     3.0340948451     1.6168024800
 F      6.0931793519     2.5245541254     2.2618704037
 H      5.0680562874     4.9163716222     2.0304540680
 F      4.9389085756     4.5753329942     1.1890846350
          6
Energy: -17.57987284466867 Kcal/mole
 H      5.9682616497     3.8087927747     3.4647731177
 F      5.6899961584     4.6595560452     3.6639192297
 H      5.6857687903     3.0313709197     1.6153088808
 F      6.0932340258     2.5246986234     2.2619496357
 H      5.0706053839     4.9177134761     2.0295131383
 F      4.9387733520     4.5752618120     1.1891345492
          6
Energy: -17.580003733541616 Kcal/mole
 H      5.9659444362     3.8075344927     3.4669415562
 F      5.6901190812     4.6596227941     3.6638041991
 H      5.6876850979     3.0319878254     1.6145884614
 F      6.0931323701     2.5246658980     2.2619878523
 H      5.0705832531     4.9168457855     2.0298696396
 F      4.9387745259     4.5753078409     1.1891156376
          6
Energy: -17.580080816813847 Kcal/mole
 H      5.9626724258     3.8062577121     3.4679190131
 F      5.6902926538     4.6596905244     3.6637523472
 H      5.6904721996     3.0369024049     1.6167238654
 F      6.0929845208     2.5244051909     2.2618745741
 H      5.0819128827     4.9196259627     2.0309529171
 F      4.9527268872     4.5803588412     1.1888734679
          6
Energy: -17.579721971713695 Kcal/mole
 H      5.9653751956     3.8067113408     3.4697303508
 F      5.6901492781     4.6596664605     3.6636562599
 H      5.6865117822     3.0372994614     1.6195295562
 F      6.0931946118     2.5243841279     2.2617257387
 H      5.0809320015     4.9215891945     2.0303091560
 F      4.9527789207     4.5802546963     1.1889076180
          6
Energy: -17.58006279961546 Kcal/mole
 H      5.9651820938     3.8068438707     3.4688755138
 F      5.6901595217     4.6596594300     3.6637016071
 H      5.6892053091     3.0368826818     1.6175004185
 F      6.0930517264     2.5244062371     2.2618333797
 H      5.0810193684     4.9224377966     2.0299510580
 F      4.9527742860     4.5802096799     1.1889266142
          6
Energy: -17.579970906114227 Kcal/mole
 H      5.9629206173     3.8057974821     3.4702856723
 F      5.6902794878     4.6597149385     3.6636268014
 H      5.6899064331     3.0369064140     1.6170803993
 F      6.0930145334     2.5244049782     2.2618556608
 H      5.0844808758     4.9207806798     2.0300883026
 F      4.9525906611     4.5802975861     1.1889193337
          6
Energy: -17.58008310225108 Kcal/mole
 H      5.9653188865     3.8067208374     3.4696087147
 F      5.6901522652     4.6596659567     3.6636627125
 H      5.6909157368     3.0367106541     1.6162951575
 F      6.0929609922     2.5244153628     2.2618973160
 H      5.0819663268     4.9216641195     2.0301205285
 F      4.9527240521     4.5802507217     1.1889176242
          6
Energy: -17.57965254793936 Kcal/mole
 H      5.9655655142     3.8062225212     3.4721673314
 F      5.6901391822     4.6596923912     3.6635269838
 H      5.6874247763     3.0376857500     1.6192607750
 F      6.0931461795     2.5243636362     2.2617399969
 H      5.0815590531     4.9196091994     2.0310138723
 F      4.9527456570     4.5803597304     1.1888702344
          6
Energy: -17.58000662071504 Kcal/mole
 H      5.9613472630     3.8054696987     3.4695233143
 F      5.6903629506     4.6597323267     3.6636672428
 H      5.6922957874     3.0383459742     1.6167372839
 F      6.0928877837     2.5243286129     2.2618738623
 H      5.0818088128     4.9221711076     2.0299387640
 F      4.9527324078     4.5802238271     1.1889272664
          6
Energy: -17.580064448379687 Kcal/mole
 H      5.9653906328     3.8064092609     3.4710861541
 F      5.6901484592     4.6596824851     3.6635843377
 H      5.6903219468     3.0371268416     1.6169960176
 F      6.0929924913     2.5243932850     2.2618601370
 H      5.0804787520     4.9197395102     2.0311258714
 F      4.9528029645     4.5803528177     1.1888642931
          6
Energy: -17.57999583975652 Kcal/mole
 H      5.9632749362     3.8058472805     3.4705659385
 F      5.6902606920     4.6597122969     3.6636119339
 H      5.6915613015     3.0391212663     1.6178129514
 F      6.0929267464     2.5242874854     2.2618168006
 H      5.0814056323     4.9192874206     2.0311668707
 F      4.9527537956     4.5803768000     1.1888621182
          6
Energy: -17.580036766100648 Kcal/mole
 H      5.9645027933     3.8067308237     3.4684132937
 F      5.6901955571     4.6596654269     3.6637261268
 H      5.6927291973     3.0388598711     1.6168779979
 F      6.0928647923     2.5243013518     2.2618663977
 H      5.0777152697     4.9212300372     2.0309379908
 F      4.9529495608     4.5802737487     1.1888742597
          6
Energy: -17.5795345715772 Kcal/mole
 H      5.9671675437     3.8070984965     3.4705823607
 F      5.6900541982     4.6596459227     3.6636110628
 H      5.6872540800     3.0349274270     1.6171745750
 F      6.0931552346     2.5245099589     2.2618506650
 H      5.0846009338     4.9213267817     2.0298481987
 F      4.9525842923     4.5802686166     1.1889320707
          6
Energy: -17.580115340880866 Kcal/mole
 H      5.9656678376     3.8071023720     3.4684310148
 F      5.6901337542     4.6596457171     3.6637251867
 H      5.6915951150     3.0366572488     1.6158302555
 F      6.0929249527     2.5244181958     2.2619219780
 H      5.0792950922     4.9210548068     2.0307732689
 F      4.9528657549     4.5802830443     1.1888829978
          6
Energy: -17.579744874917594 Kcal/mole
 H      5.9666999327     3.8075139404     3.4680941246
 F      5.6900790039     4.6596238844     3.6637430580
 H      5.6885828572     3.0354673570     1.6167672511
 F      6.0930847460     2.5244813169     2.2618722726
 H      5.0833244985     4.9230251765     2.0293567769
 F      4.9526520042     4.5801785207     1.1889581395
          6
Energy: -17.580066264249012 Kcal/mole
 H      5.9662573299     3.8077404289     3.4664895134
 F      5.6901024829     4.6596118697     3.6638281789
 H      5.6898720951     3.0369053794     1.6171010461
 F      6.0930163549     2.5244050331     2.2618545655
 H      5.0797946141     4.9213664050     2.0305718864
 F      4.9528392564     4.5802665147     1.1888936807
          6
Energy: -17.579870189798726 Kcal/mole
 H      5.9672590165     3.8079403638     3.4670317585
 F      5.6900493458     4.6596012636     3.6637994140
 H      5.6889032412     3.0360171828     1.6170022511
 F      6.0930677504     2.5244521499     2.2618598064
 H      5.0831375214     4.9198714505     2.0306651093
 F      4.9526619229     4.5803458186     1.1888887355
          6
Energy: -17.58018439658781 Kcal/mole
 H      5.9628615966     3.8062809447     3.4680810477
 F      5.6902826187     4.6596892920     3.6637437517
 H      5.6870681406     3.0372493322     1.6144527863
 F      6.0894498450     2.5237655076     2.2589000889
 H      5.0810360386     4.9231408029     2.0281501780
 F      4.9499597127     4.5826759733     1.1868466082
          6
Energy: -17.579816044543975 Kcal/mole
 H      5.9655279347     3.8068446042     3.4693614645
 F      5.6901411757     4.6596593911     3.6636758285
 H      5.6881555857     3.0391687708     1.6153077515
 F      6.0893921586     2.5236636858     2.2588547350
 H      5.0817968955     4.9226033918     2.0282485698
 F      4.9499193510     4.5827044817     1.1868413888
          6
Energy: -17.58010477920061 Kcal/mole
 H      5.9621836302     3.8057145034     3.4696156131
 F      5.6903185833     4.6597193404     3.6636623465
 H      5.6896328254     3.0365931974     1.6123380251
 F      6.0893137944     2.5238003140     2.2590122721
 H      5.0797637344     4.9225400018     2.0285901813
 F      4.9500272055     4.5827078444     1.1868232671
          6
Energy: -17.57948919696838 Kcal/mole
 H      5.9622807268     3.8053765950     3.4712463434
 F      5.6903134325     4.6597372656     3.6635758400
 H      5.6846951970     3.0353854329     1.6144567291
 F      6.0895757242     2.5238643832     2.2588998797
 H      5.0847314433     4.9216885156     2.0281522843
 F      4.9497636800     4.5827530138     1.1868464965
          6
Energy: -17.58010945310849 Kcal/mole
 H      5.9637296547     3.8064512613     3.4685501852
 F      5.6902365703     4.6596802571     3.6637188650
 H      5.6871856098     3.0355209882     1.6130064886
 F      6.0894436136     2.5238571923     2.2589768117
 H      5.0812769780     4.9215065710     2.0287720423
 F      4.9499469314     4.5827626655     1.1868136198
          6
Energy: -17.580156223683048 Kcal/mole
 H      5.9623892795     3.8063304120     3.4672099508
 F      5.6903076741     4.6596866678     3.6637899613
 H      5.6883551949     3.0378989468     1.6141685372
 F      6.0893815698     2.5237310471     2.2589151677
 H      5.0772247747     4.9249684500     2.0279931563
 F      4.9501618914     4.5825790208     1.1868549379
          6
Energy: -17.58004041389222 Kcal/mole
 H      5.9636415699     3.8064410313     3.4684715114
 F      5.6902412430     4.6596807997     3.6637230385
 H      5.6877128263     3.0381421386     1.6147626969
 F      6.0894156460     2.5237181463     2.2588836489
 H      5.0809767093     4.9254227959     2.0272321394
 F      4.9499628600     4.5825549188     1.1868953081
          6
Energy: -17.580011402247862 Kcal/mole
 H      5.9594577711     3.8062320679     3.4700872549
 F      5.6852083368     4.6599288656     3.6621237760
 H      5.6872770997     3.0365901274     1.6137978148
 F      6.0894387602     2.5238004769     2.2589348336
 H      5.0793147290     4.9215234565     2.0290688605
 F      4.9500510242     4.5827617698     1.1867978743
          6
Energy: -17.58012728765459 Kcal/mole
 H      5.9587642587     3.8065222509     3.4678224494
 F      5.6852451260     4.6599134720     3.6622439187
 H      5.6887063614     3.0358584128     1.6123291086
 F      6.0893629412     2.5238392927     2.2590127451
 H      5.0788493005     4.9210997466     2.0293104221
 F      4.9500757141     4.5827842466     1.1867850600
          6
Energy: -17.579767761615244 Kcal/mole
 H      5.9595946136     3.8061176731     3.4707926740
 F      5.6852010776     4.6599349339     3.6620863551
 H      5.6885806298     3.0384889783     1.6144992680
 F      6.0893696110     2.5236997472     2.2588976232
 H      5.0794045517     4.9191210191     2.0300171613
 F      4.9500462593     4.5828892135     1.1867475691
          6
Energy: -17.58008159552395 Kcal/mole
 H      5.9596111230     3.8069242821     3.4672524376
 F      5.6852002018     4.6598921452     3.6622741565
 H      5.6873266316     3.0378821611     1.6147960935
 F      6.0894361327     2.5237319375     2.2588818773
 H      5.0771591462     4.9224339097     2.0290300703
 F      4.9501653729     4.5827134723     1.1867999320
          6
Energy: -17.579917522987046 Kcal/mole
 H      5.9588520803     3.8064740244     3.4681580169
 F      5.6852404673     4.6599160303     3.6622261176
 H      5.6919578398     3.0371770197     1.6113694317
 F      6.0891904578     2.5237693436     2.2590636537
 H      5.0759622331     4.9210283669     2.0297750039
 F      4.9502288664     4.5827880331     1.1867604150
          6
Energy: -17.580111449836465 Kcal/mole
 H      5.9605294123     3.8068594438     3.4688371950
 F      5.6851514887     4.6598955847     3.6621900888
 H      5.6886417872     3.0368158496     1.6131284474
 F      6.0893663667     2.5237885029     2.2589703420
 H      5.0780743155     4.9201482398     2.0298098526
 F      4.9501168253     4.5828347218     1.1867585663
          6
Energy: -17.579491404608802 Kcal/mole
 H      5.9620918861     3.8076375616     3.4676417891
 F      5.6850686031     4.6598543074     3.6622535023
 H      5.6908609643     3.0345137878     1.6099394909
 F      6.0892486445     2.5239106219     2.2591395088
 H      5.0779511697     4.9176564884     2.0308209933
 F      4.9501233579     4.5829669035     1.1867049277
          6
Energy: -17.580085169076426 Kcal/mole
 H      5.9590946899     3.8067832650     3.4671433488
 F      5.6852275974     4.6598996258     3.6622799434
 H      5.6905489158     3.0377009674     1.6126520202
 F      6.0892651980     2.5237415494     2.2589956154
 H      5.0780075086     4.9214107830     2.0293136839
 F      4.9501203692     4.5827677468     1.1867848870
          6
Energy: -17.580012354215057 Kcal/mole
 H      5.9589321127     3.8061839728     3.4695519123
 F      5.6852362218     4.6599314169     3.6621521747
 H      5.6889829434     3.0384987288     1.6142570153
 F      6.0893482692     2.5236992300     2.2589104741
 H      5.0778071650     4.9204756570     2.0297192808
 F      4.9501309970     4.5828173531     1.1867633710
          6
Energy: -17.58012105832165 Kcal/mole
 H      5.9586810836     3.8066145608     3.4673010298
 F      5.6852495383     4.6599085752     3.6622715788
 H      5.6880992844     3.0369624290     1.6135819144
 F      6.0893951452     2.5237807272     2.2589462866
 H      5.0764919994     4.9225088991     2.0291001322
 F      4.9502007635     4.5827094943     1.1867962154
          6
Energy: -17.580039742681663 Kcal/mole
 H      5.9595554619     3.8070135444     3.4667843325
 F      5.6852031545     4.6598874100     3.6622989884
 H      5.6875964200     3.0376926567     1.6144765597
 F      6.0894218210     2.5237419903     2.2588988278
 H      5.0791311148     4.9220777807     2.0288738535
 F      4.9500607645     4.5827323641     1.1868082189
          6
Energy: -17.580011463841743 Kcal/mole
 H      5.9598082345     3.8067700749     3.4682068746
 F      5.6851897455     4.6599003255     3.6622235258
 H      5.6914243315     3.0375889654     1.6120238882
 F      6.0892187592     2.5237474908     2.2590289363
 H      5.0772744294     4.9206113552     2.0297454252
 F      4.9501592574     4.5828101546     1.1867619841
          6
Energy: -17.579929121234613 Kcal/mole
 H      5.9583592491     3.8057233261     3.4707854060
 F      5.6852666108     4.6599558531     3.6620867407
 H      5.6897216477     3.0378813177     1.6133066893
 F      6.0893090826     2.5237319822     2.2589608867
 H      5.0791215890     4.9206275857     2.0294582015
 F      4.9500612698     4.5828092936     1.1867772206
          6
Energy: -17.580074463753533 Kcal/mole
 H      5.9583916184     3.8064223352     3.4677371971
 F      5.6852648937     4.6599187723     3.6622484411
 H      5.6872713345     3.0359513071     1.6132941799
 F      6.0894390661     2.5238343648     2.2589615503
 H      5.0790183173     4.9207278403     2.0294338141
 F      4.9500667481     4.5828039754     1.1867785143
          6
Energy: -17.57996399955789 Kcal/mole
 H      5.9598452348     3.8068151598     3.4680610658
 F      5.6851877827     4.6598979339     3.6622312606
 H      5.6872492132     3.0350518090     1.6125955718
 F      6.0894402396     2.5238820811     2.2589986098
 H      5.0777813406     4.9229408052     2.0287313353
 F      4.9501323669     4.5826865827     1.1868157792
          6
Energy: -17.580074441445504 Kcal/mole
 H      5.9588848827     3.8065362448     3.4679307945
 F      5.6852387272     4.6599127297     3.6622381712
 H      5.6904427316     3.0377111040     1.6127255972
 F      6.0892708308     2.5237410117     2.2589917123
 H      5.0761095597     4.9221755381     2.0292917730
 F      4.9502210510     4.5827271783     1.1867860493
          6
Energy: -17.580096511059594 Kcal/mole
 H      5.9592093561     3.8069831647     3.4664318478
 F      5.6852215146     4.6598890216     3.6623176869
 H      5.6873634965     3.0366567044     1.6137968859
 F      6.0894341771     2.5237969451     2.2589348829
 H      5.0786181695     4.9232270894     2.0284882316
 F      4.9500879751     4.5826713960     1.1868286753
          6
Energy: -17.580060508618317 Kcal/mole
 H      5.9607423697     3.8075237587     3.4662295062
 F      5.6851401918     4.6598603443     3.6623284206
 H      5.6895357761     3.0367405300     1.6125148880
 F      6.0893189427     2.5237924984     2.2590028899
 H      5.0781981150     4.9222089757     2.0289634315
 F      4.9501102580     4.5827254046     1.1868034670
          6
Energy: -17.579972804737906 Kcal/mole
 H      5.9605028800     3.8067932715     3.4690915368
 F      5.6851528962     4.6598990950     3.6621765965
 H      5.6877539249     3.0385781967     1.6150855636
 F      6.0894134658     2.5236950144     2.2588665215
 H      5.0779801692     4.9234393911     2.0284994757
 F      4.9501218195     4.5826601339     1.1868280788
          6
Energy: -17.579849709766847 Kcal/mole
 H      5.9630868833     3.8080422760     3.4672893226
 F      5.6850158208     4.6598328382     3.6622721998
 H      5.6878211538     3.0364833145     1.6133741623
 F      6.0894098994     2.5238061431     2.2589573074
 H      5.0797635997     4.9204855775     2.0294165325
 F      4.9500272126     4.5828168269     1.1867794311
          6
Energy: -17.580060599452622 Kcal/mole
 H      5.9600416505     3.8069753756     3.4676356595
 F      5.6851773633     4.6598894348     3.6622538275
 H      5.6893688918     3.0358989454     1.6119512013
 F      6.0893277955     2.5238371425     2.2590327922
 H      5.0788798483     4.9199570749     2.0297636473
 F      4.9500740936     4.5828448627     1.1867610174
          6
Energy: -17.5799934335933 Kcal/mole
 H      5.9598808758     3.8072209304     3.4663372437
 F      5.6851858921     4.6598764087     3.6623227054
 H      5.6903271779     3.0377069173     1.6127935935
 F      6.0892769606     2.5237412338     2.2589881052
 H      5.0775831797     4.9235021132     2.0285342854
 F      4.9501428789     4.5826568066     1.1868262322
          6
Energy: -17.58010675805326 Kcal/mole
 H      5.9586767321     3.8068543645     3.4662485660
 F      5.6852497691     4.6598958542     3.6623274096
 H      5.6890409887     3.0367870753     1.6128580886
 F      6.0893451900     2.5237900293     2.2589846839
 H      5.0775673359     4.9210337635     2.0295317958
 F      4.9501437194     4.5827877468     1.1867733166
          6
Energy: -17.57999720134694 Kcal/mole
 H      5.9592286748     3.8065668066     3.4682813941
 F      5.6852204898     4.6599111084     3.6622195727
 H      5.6898440038     3.0355558528     1.6113865721
 F      6.0893025919     2.5238553428     2.2590627445
 H      5.0767176444     4.9200282741     2.0300625679
 F      4.9501887935     4.5828410857     1.1867451604
          6
Energy: -17.580166552185005 Kcal/mole
 H      5.9600566007     3.8071530187     3.4668798847
 F      5.6851765703     4.6598800112     3.6622939196
 H      5.6887290330     3.0370348233     1.6132483138
 F      6.0893617385     2.5237768868     2.2589639834
 H      5.0767431098     4.9219291788     2.0292960771
 F      4.9501874426     4.5827402471     1.1867858209
          6
Energy: -17.58015366496096 Kcal/mole
 H      5.9601066950     3.8070398387     3.4674451351
 F      5.6851739129     4.6598860152     3.6622639343
 H      5.6884906550     3.0367791976     1.6131931286
 F      6.0893743839     2.5237904472     2.2589669108
 H      5.0781668001     4.9206771644     2.0295839753
 F      4.9501119192     4.5828066636     1.1867705486
          6
Energy: -17.580054469036895 Kcal/mole
 H      5.9593801794     3.8067252770     3.4677989288
 F      5.6852124529     4.6599027020     3.6622451664
 H      5.6895826253     3.0388288265     1.6141485775
 F      6.0893164574     2.5236817191     2.2589162265
 H      5.0759074026     4.9221527793     2.0293311224
 F      4.9502317750     4.5827283856     1.1867839619
          6
Energy: -17.580140690764324 Kcal/mole
 H      5.9602352051     3.8070213023     3.4677078691
 F      5.6851670957     4.6598869985     3.6622499969
 H      5.6884188815     3.0367631895     1.6132249730
 F      6.0893781914     2.5237912963     2.2589652216
 H      5.0790874280     4.9213893615     2.0291576291
 F      4.9500630820     4.5827688832     1.1867931653
          6
Energy: -17.580116616749876 Kcal/mole
 H      5.9585109289     3.8062130862     3.4688262611
 F      5.6852585646     4.6599298725     3.6621906688
 H      5.6895989052     3.0373788979     1.6129828683
 F      6.0893155938     2.5237586344     2.2589780647
 H      5.0803305754     4.9204506321     2.0288259251
 F      4.9526749905     4.5824968021     1.1859853349
          6
Energy: -17.580059884534364 Kcal/mole
 H      5.9602596607     3.8068727802     3.4683949019
 F      5.6851657984     4.6598948773     3.6622135514
 H      5.6895224291     3.0386088412     1.6140101946
 F      6.0893196507     2.5236933888     2.2589235674
 H      5.0800095902     4.9230392120     2.0278317303
 F      4.9526920180     4.5823594839     1.1860380747
          6
Energy: -17.580125540377367 Kcal/mole
 H      5.9601283010     3.8071355194     3.4670572031
 F      5.6851727667     4.6598809395     3.6622845132
 H      5.6889572400     3.0368686689     1.6129747787
 F      6.0893496327     2.5237857009     2.2589784938
 H      5.0796580603     4.9205691169     2.0288799814
 F      4.9527106658     4.5824905167     1.1859824674
          6
Energy: -17.580132754683916 Kcal/mole
 H      5.9594535826     3.8064782847     3.4689901848
 F      5.6852085590     4.6599158043     3.6621819730
 H      5.6890881584     3.0382284683     1.6139759828
 F      6.0893426878     2.5237135667     2.2589253822
 H      5.0795931923     4.9212795267     2.0286044468
 F      4.9527141069     4.5824528311     1.1859970838