          6
Energy: -5.502823912278349 Kcal/mole
 Xe    -2.8779794778    -7.2434618332    -1.5635020043
 Xe     0.7130843841    -8.8378172820     0.4457324855
 Xe    -0.3338023881    -5.4578942385    -4.6823690466
 Xe    -0.0448486595    -9.7819064852    -3.7871243181
 Xe     3.2345060548    -7.0830930505    -2.6855914857
 Xe     0.4142807955    -4.5518242161    -0.4628301734
