          6
Energy: -5.32629197184366 Kcal/mole
 Xe     7.8926084256    -4.8392568378    -7.4029026099
 Xe     4.4343200098    -4.6265280456   -10.1446603495
 Xe     4.9573849298     1.8045495889    -7.0480842641
 Xe     4.3494293371    -2.4889410878    -6.2883944200
 Xe     2.6438978990    -0.6144830188    -9.8956468584
 Xe     7.0244879204    -1.1221665474    -9.5706883625
