          6
Energy: -0.12610086373018758 Kcal/mole
 Xe    -2.6925712792    -3.9630345742     4.6153026422
 Xe    -1.4349221543    -4.9839320735    -3.5108255851
 Xe     1.1535422909     2.1802482686    -2.3321775292
 Xe     5.4639897280     8.6568300314    -6.3387414264
 Xe     5.7611560592     5.5795595012    10.5952353096
 Xe     6.9487905588    -2.4610820407    -1.4070836697
          6
Energy: -1.0734598903737957 Kcal/mole
 Xe    -7.5806505133    -1.2635737861     3.2053692714
 Xe    -1.6550451675    -9.5081670970     8.6028397218
 Xe    -5.6538817269    -7.6385322069     8.2155394748
 Xe     6.9022622490    -9.4210309737     5.3868521184
 Xe     3.5377508944    -6.8337714873     3.8177706238
 Xe    -8.2350966819     1.3002188294     6.1929107609
          6
Energy: -1.59612848641635 Kcal/mole
 Xe     9.1294289489     3.8594232058     1.4514095608
 Xe    10.4794446662     9.0177090697    -7.8648781980
 Xe     5.9990594142     5.9571520223    -1.1318799783
 Xe     9.6881049359     9.0176398521    -3.7271525620
 Xe     3.4107956727     6.8887480073     2.5255900551
 Xe    -1.4434148415     6.9062557186    -7.7199240947
          6
Energy: -2.5691748490921302 Kcal/mole
 Xe     0.3771286537    -2.3515485406    -1.5624346815
 Xe     4.9217417694    -2.2645914641     4.5165817769
 Xe     1.5985025160    -4.5488924087     6.7925818476
 Xe     0.5635670342    -1.9284598609     2.8284550641
 Xe     5.0772428945    -0.7736950599     0.1812361372
 Xe    -5.5657516267    -4.5829816560    -6.8872667929
          6
Energy: -2.436501819962959 Kcal/mole
 Xe    -0.4933691588     4.9105216307     4.5834998276
 Xe    -1.5075063652     5.2961640686     0.4872216408
 Xe    -7.2852750643     2.1918955323     5.0827319956
 Xe    -5.6323473194     4.3846138782     2.2655595034
 Xe    -5.5597506225     4.4196885676     9.2739765617
 Xe    -4.6109223740     8.4106654082     1.4553687893
          6
Energy: -0.4908672860022606 Kcal/mole
 Xe     0.8828177637    -4.9234379189     9.5581625658
 Xe     8.2104385477    -0.9263410577     4.6832373255
 Xe    -1.1723776235    -0.4625607919    10.4835984891
 Xe     9.0884685143     7.0087487873     0.6962064881
 Xe    -3.5949369808    -8.5454911151     7.9447232590
 Xe    -4.9876116998     4.5795317006     2.2616864200
          6
Energy: -4.784301572670356 Kcal/mole
 Xe     4.2988820414    -1.1119127946     5.8483158540
 Xe     0.0578440844     0.3499889502     5.3697528078
 Xe    -1.3943646661     2.7163318027     2.1084385365
 Xe     2.7299191481     1.2052406972     1.7543965625
 Xe     1.4319188657    -2.7029857895     2.5615982586
 Xe     2.8282254074     3.4695303533     5.5019742581
          6
Energy: -4.283047306075308 Kcal/mole
 Xe     2.9877887589     3.2516424388     3.2432448309
 Xe     1.8457185480     3.3258144726    -1.5554831348
 Xe     5.6022563709     1.0814249963    -2.2484980035
 Xe     2.8183230902    -0.8321500078     0.6642383900
 Xe    -1.2609794982     0.6623597691     0.5516974247
 Xe     6.4826491995     0.4917211756     1.9326277781
          6
Energy: -5.3095751324961755 Kcal/mole
 Xe     8.9849322909     5.4281969639    -0.6238238897
 Xe     8.4884976321     3.0907926583    -4.6756509081
 Xe     8.9934106145     1.1283121960    -0.8726092596
 Xe     5.2612787627     0.8215891439    -2.7678965267
 Xe     4.9542568165     5.1496112357    -2.4963633155
 Xe     5.7730465943     3.1019127897     1.2808833583
          6
Energy: -5.502644435436124 Kcal/mole
 Xe     8.9635293507     5.3384536424    -0.6190401560
 Xe     8.4296782710     3.3615132986    -4.4960698843
 Xe     9.2761134969     0.9829103615    -0.9073033718
 Xe     5.2885464757     0.8217218032    -2.7159155890
 Xe     4.9729506128     5.1987014756    -2.4626227371
 Xe     5.8362335083     2.8252549652     1.1461655925
