          6
Energy: -5.502644435436124 Kcal/mole
 Xe     8.9635293507     5.3384536424    -0.6190401560
 Xe     8.4296782710     3.3615132986    -4.4960698843
 Xe     9.2761134969     0.9829103615    -0.9073033718
 Xe     5.2885464757     0.8217218032    -2.7159155890
 Xe     4.9729506128     5.1987014756    -2.4626227371
 Xe     5.8362335083     2.8252549652     1.1461655925
