          6
Energy: -2.739653832404486 Kcal/mole
 Xe     1.4460113558     1.7515237889    -5.2677646065
 Xe     0.8266369623    -2.9736860668    -7.1397826549
 Xe     1.6961371224     5.8520889134    -6.9333102008
 Xe    -2.2089058459    -3.8945439169    -4.1540604166
 Xe    -2.6451867007    -0.8821645125    -8.8221198254
 Xe     0.1087643696    -7.3976160716    -7.1962189638
          6
Energy: -1.8765454060436269 Kcal/mole
 Xe    -5.9587747997    -6.3371958536    -7.7471529782
 Xe    -8.6555315241    -6.2019604068    -4.0570459903
 Xe     9.9290619062    -8.9323577306     4.0268581941
 Xe   -10.6980184150    -6.8792357724     3.6946141237
 Xe    -6.9656224662    -9.8448348414    -1.3732703332
 Xe    -8.0051407330   -10.3918747685    -6.5151338980
          6
Energy: -3.252657956868407 Kcal/mole
 Xe     0.4580784356    -8.2471978825     3.4482207443
 Xe     3.6162466013     5.8029638555    -9.5497233520
 Xe     2.9820249152    -4.8064115036     3.9666674177
 Xe     1.0136948945    -5.9751657076    -0.2049032423
 Xe     4.2021999527    -9.0110085182     6.2333688202
 Xe     5.5686238357    -7.6545284026     1.9157474585
          6
Energy: -2.6796161363581343 Kcal/mole
 Xe     5.7269394357    -6.9609078605     4.8250795857
 Xe     9.7991986658    -8.4299432789     5.6942216785
 Xe    -5.8764015536     1.0006996391     8.3022072405
 Xe     8.0102780328    -3.7144122199     6.4937925711
 Xe    -4.8242903609     4.9208724440     6.4116473587
 Xe     7.2051925924    -6.6793847170     9.4297904300
          6
Energy: -4.678744641282349 Kcal/mole
 Xe     7.6528122801    -0.9925600368     2.6186698719
 Xe     3.4782404737    -0.9329885976     4.0714558767
 Xe     2.9867661957     2.4221870742     6.7744703733
 Xe     5.6435357143    -0.6116066082     7.6036264406
 Xe     7.0450212387     3.1000699274     5.4519131525
 Xe     4.9291942211     2.5463045439     1.5997086247
          6
Energy: -4.876966032384777 Kcal/mole
 Xe     6.8963249083     6.7865131589     7.7670323511
 Xe     4.8954849346     2.1748146680     2.2387873330
 Xe     1.2675757681     2.7703509318     5.4072247199
 Xe     8.1586805409     4.5192819683     4.3073127886
 Xe     5.1238444676     2.9145676496     7.4000960644
 Xe     3.7817433394     6.1264085108     4.3693069126
          6
Energy: -5.050207235348146 Kcal/mole
 Xe     6.6917719431     5.5328606692     2.4372482649
 Xe     5.4211895243     0.0898247316     1.6136199998
 Xe     3.6745689499     3.1798309594     4.3502530029
 Xe     8.2505211766     2.4043998139    -0.6030405568
 Xe     7.9168073664     1.7888190637     4.5815290500
 Xe     3.3547527518     3.7379342588     0.0989318836
          6
Energy: -5.301425678251462 Kcal/mole
 Xe     5.7823371848     6.8924087415     0.5921490067
 Xe     8.8418698046     1.6440833504    -0.3523037559
 Xe     4.8027594610     2.4333332053     1.5594211760
 Xe     9.5249779273     5.7854576955    -1.4987853261
 Xe     8.7478798766     4.7567220176     2.8810697275
 Xe     5.7765226490     3.5928084685    -2.5691101775
          6
Energy: -5.3770851182888455 Kcal/mole
 Xe     8.3550148631     8.1884272409     4.2865027670
 Xe     7.1639800254     1.8979955878     3.2285469076
 Xe     4.8942977239     5.6370347769     2.8200005436
 Xe    10.6554927446     4.4145317583     4.6718281161
 Xe     6.9504640088     4.8339425498     6.5503863569
 Xe     8.7282660453     5.2329793365     0.8390778514
          6
Energy: -5.502544903772643 Kcal/mole
 Xe     8.3075917734     8.0752248575     4.0452108883
 Xe     7.2612015959     1.9828541634     3.2930634211
 Xe     4.8804217570     5.6260094703     2.7870740114
 Xe    10.6727302465     4.4208039466     4.5428440012
 Xe     6.8413751492     4.8246372056     6.6275906362
 Xe     8.7065497992     5.2385653065     0.6902504832
