          6
Energy: -0.11204799304799905 Kcal/mole
 Xe    -2.9760259491    -5.2282217322    -2.8045639779
 Xe     6.5989895492    -6.4446404387     2.0838426852
 Xe    -7.0269772650     5.1148522831    -0.3399110881
 Xe    -0.4321155476    -5.4511311077     5.9130546419
 Xe     6.5779329872     0.3011857912     6.8433144758
 Xe     1.2283100593     4.9335150713     1.5178291204
