          24
Energy: -95.2483096789346 Kcal/mole
 H     -4.9267993663     6.2869892018    -0.1211216372
 F     -4.1040901210     6.6077514057     0.1261638380
 H     -1.5904381342     3.1945988748    -2.4186485780
 F     -2.3227757628     3.2603499085    -2.9665969327
 H     -0.5267719010     5.5095137041     0.0182366758
 F      0.3356076174     5.8002633117     0.1307321510
 H      0.5395115603     2.6158653152    -1.9029941820
 F     -0.1670520223     3.0856897159    -1.5552558662
 H     -6.8487969711     5.9782672392    -1.3567449411
 F     -6.4017069524     5.6732015467    -0.6165190036
 H      1.0933538429     5.9345234063    -1.3077658012
 F      1.4754890409     5.9683948063    -2.1406610039
 H     -3.3597336439     4.5419753758    -2.8196767206
 F     -3.9469120164     5.2458726663    -2.7943950430
 H     -6.9270301647     6.2975765927    -3.5213119223
 F     -7.4595821116     6.5000355308    -2.8027802235
 H      2.4655991654     2.7259549915    -2.6908052810
 F      1.8895977946     2.0217690719    -2.5757678459
 H     -2.8113141529     5.6453928361    -0.2201692959
 F     -2.0961217180     5.0950720620    -0.3830675055
 H     -5.0141019516     5.6014325753    -4.0327201096
 F     -5.7267858314     5.8384565575    -4.5588287669
 H      2.6655191469     4.9001563279    -2.5731061028
 F      3.2230591073     4.2001433954    -2.7731563140
