          24
Energy: -95.55019396515993 Kcal/mole
 H      1.5275386486     6.8686633318    -1.8181401896
 F      2.3667521812     6.7314041214    -1.4749644970
 H     -1.9081362440     0.1299262044     4.2241574240
 F     -1.8925534675     1.0283919743     4.0413858794
 H      2.4204070125     3.8052811150     0.8530372575
 F      2.5103909857     3.5656068586     1.7335758060
 H     -0.8185524078    -1.5153340523     4.9730738693
 F     -1.6491580957    -1.4465670248     4.5906418007
 H     -0.4998895956     6.0246143318    -2.1357349832
 F     -0.0484458057     6.8019706442    -2.3168555731
 H      1.3432818469     2.6380608238     2.4566583262
 F      0.7622862526     2.0931570794     2.9109853326
 H     -2.0066814261     1.5930909310     2.4796255211
 F     -2.0933949478     1.8746761666     1.6112479994
 H     -0.8550596972     4.1211544390    -0.9122516443
 F     -1.1347102426     4.5645432861    -1.6646417710
 H      1.0853569069    -0.4905052880     5.4669812706
 F      0.7143569997    -1.3228852444     5.5689208463
 H      2.4279368121     5.1671509274    -0.9942577825
 F      2.2983052475     4.2974875261    -0.7339306309
 H     -0.9398215594     2.8479726615     0.9320678266
 F     -0.3532812566     3.4064498951     0.5019949807
 H      1.2828462606     1.4677521234     4.3539895731
 F      1.5748523984     1.0557650212     5.1194228119
          24
Energy: -95.55007034292323 Kcal/mole
 H      1.5284100903     6.8711373713    -1.8192691948
 F      2.3667059532     6.7312728794    -1.4749046059
 H     -1.9039940697     0.1306009558     4.2277398023
 F     -1.8927732003     1.0283561803     4.0411958425
 H      2.4238582828     3.8013352210     0.8516281503
 F      2.5102079038     3.5658161791     1.7336505558
 H     -0.8194366100    -1.5157586049     4.9749119545
 F     -1.6491111908    -1.4465445033     4.5905442945
 H     -0.4977398171     6.0234353634    -2.1354544021
 F     -0.0485598465     6.8020331858    -2.3168704573
 H      1.3434522536     2.6390559074     2.4580732125
 F      0.7622772129     2.0931042926     2.9109102761
 H     -2.0090612315     1.5969053104     2.4810864845
 F     -2.0932687046     1.8744738225     1.6111704986
 H     -0.8541094169     4.1196505163    -0.9134944151
 F     -1.1347606528     4.5646230657    -1.6645758449
 H      1.0850225096    -0.4903821892     5.4667703016
 F      0.7143747387    -1.3228917745     5.5689320377
 H      2.4315035819     5.1684876371    -0.9879052359
 F      2.2981160386     4.2974166168    -0.7342676188
 H     -0.9376740209     2.8465101698     0.9330879960
 F     -0.3533951786     3.4065274769     0.5019408631
 H      1.2858094117     1.4658601056     4.3518524402
 F      1.5746952101     1.0558653884     5.1195361819
          24
Energy: -95.55010486101737 Kcal/mole
 H      1.5295322654     6.8674398759    -1.8234530887
 F      2.3666464244     6.7314690229    -1.4746826600
 H     -1.9037709748     0.1302559679     4.2260847368
 F     -1.8927850349     1.0283744811     4.0412836399
 H      2.4229218830     3.8031087406     0.8521959851
 F      2.5102575777     3.5657220980     1.7336204335
 H     -0.8200425225    -1.5198925222     4.9754511271
 F     -1.6490790486    -1.4463252085     4.5905156927
 H     -0.4981754047     6.0238623652    -2.1347030231
 F     -0.0485367395     6.8020105343    -2.3169103162
 H      1.3435428229     2.6377609243     2.4566325586
 F      0.7622724084     2.0931729884     2.9109866995
 H     -2.0093120977     1.5954146377     2.4806336246
 F     -2.0932553967     1.8745528993     1.6111945218
 H     -0.8547555827     4.1252700487    -0.9099549300
 F     -1.1347263752     4.5643249625    -1.6647636064
 H      1.0836906048    -0.4891033213     5.4725491869
 F      0.7144453932    -1.3229596155     5.5686254812
 H      2.4262710893     5.1688471673    -0.9893607527
 F      2.2983936102     4.2973975445    -0.7341904070
 H     -0.9383550330     2.8459049655     0.9313744069
 F     -0.3533590524     3.4065595816     0.5020317650
 H      1.2838448620     1.4670780423     4.3532471753
 F      1.5747994249     1.0558007796     5.1194621944
          24
Energy: -95.55061957924794 Kcal/mole
 H      1.5301869146     6.8731144485    -1.8227621131
 F      2.3666116968     6.7311680000    -1.4747193146
 H     -1.9072520777     0.1311925250     4.2303407533
 F     -1.8926003705     1.0283247989     4.0410578680
 H      2.4214317696     3.8060948063     0.8531550467
 F      2.5103366248     3.5655636941     1.7335695575
 H     -0.8185262456    -1.5157768618     4.9729371271
 F     -1.6491594836    -1.4465435348     4.5906490546
 H     -0.4959318063     6.0228553440    -2.1334888215
 F     -0.0486557573     6.8020639545    -2.3169747268
 H      1.3468210391     2.6346776234     2.4571546382
 F      0.7620985066     2.0933365504     2.9109590044
 H     -2.0060666037     1.5959179149     2.4804753086
 F     -2.0934275627     1.8745262016     1.6112029201
 H     -0.8543385682     4.1222200239    -0.9118929675
 F     -1.1347484969     4.5644867592    -1.6646607980
 H      1.0870390471    -0.4910499646     5.4686869263
 F      0.7142677661    -1.3228563506     5.5688303652
 H      2.4264536859     5.1680634784    -0.9919307101
 F      2.2983839239     4.2974391174    -0.7340540767
 H     -0.9404443512     2.8485704490     0.9319937996
 F     -0.3532482189     3.4064181838     0.5019989077
 H      1.2827620669     1.4660729523     4.3531203587
 F      1.5748568647     1.0558540973     5.1194689218
          24
Energy: -95.549865933737 Kcal/mole
 H      1.5294413961     6.8667053751    -1.8235205024
 F      2.3666512448     6.7315079865    -1.4746790838
 H     -1.9089775283     0.1298298519     4.2236091173
 F     -1.8925088393     1.0283970855     4.0414149658
 H      2.4198632301     3.8073692834     0.8536642266
 F      2.5104198321     3.5654960861     1.7335425467
 H     -0.8198382251    -1.5165099560     4.9756418367
 F     -1.6490898861    -1.4465046458     4.5905055760
 H     -0.5003512056     6.0253545255    -2.1337226748
 F     -0.0484213183     6.8019313787    -2.3169623214
 H      1.3426594410     2.6371849863     2.4548172083
 F      0.7623192697     2.0932035406     2.9110829996
 H     -2.0101466666     1.5985056533     2.4816996929
 F     -2.0932111248     1.8743889281     1.6111379693
 H     -0.8558404114     4.1223136139    -0.9112803832
 F     -1.1346688276     4.5644817945    -1.6646932942
 H      1.0857608512    -0.4911153806     5.4635338738
 F      0.7143355714    -1.3228528804     5.5691037227
 H      2.4265978723     5.1694249331    -0.9872133957
 F      2.2983762752     4.2973668954    -0.7343043193
 H     -0.9411111016     2.8476291601     0.9298548938
 F     -0.3532128494     3.4064681170     0.5021123717
 H      1.2856695068     1.4654597325     4.3516914025
 F      1.5747026317     1.0558866272     5.1195447246
          24
Energy: -95.55076761294254 Kcal/mole
 H      1.5284300285     6.8698776038    -1.8198264865
 F      2.3667048955     6.7313397071    -1.4748750428
 H     -1.9069484255     0.1305539327     4.2273106308
 F     -1.8926164785     1.0283586747     4.0412186090
 H      2.4185136643     3.8042384805     0.8529497454
 F      2.5104914235     3.5656621679     1.7335804483
 H     -0.8188788829    -1.5154633155     4.9737588827
 F     -1.6491407770    -1.4465601677     4.5906054623
 H     -0.4952933577     6.0222483556    -2.1345154475
 F     -0.0486896255     6.8020961538    -2.3169202666
 H      1.3462972427     2.6329904296     2.4544790135
 F      0.7621262928     2.0934260521     2.9111009401
 H     -2.0070686699     1.5949259261     2.4802568422
 F     -2.0933744054     1.8745788243     1.6112145092
 H     -0.8534810600     4.1219602647    -0.9123657255
 F     -1.1347939857     4.5645005389    -1.6646357193
 H      1.0862263626    -0.4906874264     5.4686772717
 F      0.7143108771    -1.3228755824     5.5688308773
 H      2.4281045920     5.1684975449    -0.9896285833
 F      2.2982963472     4.2974160912    -0.7341761992
 H     -0.9410389022     2.8466166804     0.9286282166
 F     -0.3532166794     3.4065218267     0.5021774441
 H      1.2812793117     1.4673135757     4.3543532186
 F      1.5749355214     1.0557882851     5.1194035214
          24
Energy: -95.55018178741975 Kcal/mole
 H      1.5284922240     6.8695135989    -1.8201234767
 F      2.3667015962     6.7313590167    -1.4748592882
 H     -1.9025752855     0.1306257838     4.2279388355
 F     -1.8928484635     1.0283548632     4.0411852842
 H      2.4212040357     3.8054701095     0.8530076524
 F      2.5103487055     3.5655968328     1.7335773765
 H     -0.8177504434    -1.5169601977     4.9710293936
 F     -1.6492006381    -1.4464807615     4.5907502554
 H     -0.4988339682     6.0249306193    -2.1317950023
 F     -0.0485018043     6.8019538659    -2.3170645800
 H      1.3441793571     2.6338045526     2.4527409580
 F      0.7622386417     2.0933828648     2.9111931399
 H     -2.0091784036     1.5974193539     2.4812616584
 F     -2.0932624889     1.8744465537     1.6111612061
 H     -0.8537530816     4.1234205644    -0.9114071347
 F     -1.1347795556     4.5644230733    -1.6646865703
 H      1.0862972202    -0.4905027084     5.4704927754
 F      0.7143071183    -1.3228853812     5.5687345691
 H      2.4315393122     5.1679752462    -0.9896393661
 F      2.2981141432     4.2974437979    -0.7341756272
 H     -0.9396433210     2.8459700155     0.9296985250
 F     -0.3532907117     3.4065561308     0.5021206667
 H      1.2821246380     1.4661588806     4.3534096539
 F      1.5748906788     1.0558495390     5.1194535753
          24
Energy: -95.55097846186833 Kcal/mole
 H      1.5290360118     6.8669137768    -1.8224648272
 F      2.3666727495     6.7314969313    -1.4747350850
 H     -1.9050778229     0.1309038465     4.2291233182
 F     -1.8927157097     1.0283401126     4.0411224501
 H      2.4208919065     3.8072358009     0.8535223182
 F      2.5103652632     3.5655031670     1.7335500746
 H     -0.8193804980    -1.5184532416     4.9742951319
 F     -1.6491141675    -1.4464015590     4.5905770156
 H     -0.4961679843     6.0222844361    -2.1365164133
 F     -0.0486432286     6.8020942398    -2.3168141200
 H      1.3451072078     2.6359072225     2.4564189563
 F      0.7621894214     2.0932713230     2.9109980306
 H     -2.0086574299     1.5967494755     2.4809975555
 F     -2.0932901253     1.8744820892     1.6111752161
 H     -0.8574357064     4.1226225928    -0.9105109084
 F     -1.1345842008     4.5644654039    -1.6647341130
 H      1.0853072912    -0.4905656311     5.4663103281
 F      0.7143596317    -1.3228820433     5.5689564382
 H      2.4256350116     5.1686999500    -0.9901800275
 F      2.2984273527     4.2974053541    -0.7341469464
 H     -0.9384154452     2.8472008590     0.9329791063
 F     -0.3533558477     3.4064908374     0.5019466394
 H      1.2827219817     1.4666393868     4.3534391354
 F      1.5748589911     1.0558240493     5.1194520114
          24
Energy: -95.55080471384593 Kcal/mole
 H      1.5288509119     6.8684053058    -1.8214330647
 F      2.3666825686     6.7314178091    -1.4747898176
 H     -1.9034489843     0.1302030475     4.2258462237
 F     -1.8928021158     1.0283772884     4.0412962924
 H      2.4197572065     3.8051585994     0.8530705770
 F      2.5104254565     3.5656133577     1.7335740384
 H     -0.8197873173    -1.5167436440     4.9754896384
 F     -1.6490925866    -1.4464922492     4.5905136497
 H     -0.4981479968     6.0240459357    -2.1338536021
 F     -0.0485381935     6.8020007963    -2.3169553760
 H      1.3418993417     2.6392739379     2.4563493691
 F      0.7623595913     2.0930927265     2.9110017220
 H     -2.0085901292     1.5987406852     2.4816241562
 F     -2.0932936955     1.8743764601     1.6111419764
 H     -0.8555270302     4.1221229831    -0.9115083706
 F     -1.1346854517     4.5644919070    -1.6646812000
 H      1.0835214259    -0.4899549094     5.4648379710
 F      0.7144543678    -1.3229144407     5.5690345434
 H      2.4300462918     5.1679134399    -0.9906231673
 F      2.2981933445     4.2974470766    -0.7341234388
 H     -0.9410555843     2.8462831079     0.9281668601
 F     -0.3532157944     3.4065395220     0.5022019180
 H      1.2834044800     1.4670738373     4.3534122963
 F      1.5748227862     1.0558010027     5.1194534352
          24
Energy: -95.5503633430051 Kcal/mole
 H      1.5291908518     6.8696980299    -1.8217409740
 F      2.3666645356     6.7313492331    -1.4747734837
 H     -1.9067307826     0.1306356532     4.2277210251
 F     -1.8926280240     1.0283543396     4.0411968385
 H      2.4162835092     3.8064468000     0.8537872509
 F      2.5106097281     3.5655450217     1.7335360205
 H     -0.8208045335    -1.5162038695     4.9777704699
 F     -1.6490386257    -1.4465208830     4.5903926569
 H     -0.4978869272     6.0233708163    -2.1360969372
 F     -0.0485520426     6.8020366098    -2.3168363723
 H      1.3451516310     2.6369694133     2.4577472223
 F      0.7621870648     2.0932149762     2.9109275691
 H     -2.0134316178     1.5981942660     2.4819078351
 F     -2.0930368657     1.8744054464     1.6111269279
 H     -0.8591110679     4.1218021781    -0.9103783375
 F     -1.1344953268     4.5645089250    -1.6647411456
 H      1.0855822598    -0.4910117955     5.4637220273
 F      0.7143450453    -1.3228583753     5.5690937416
 H      2.4284191003     5.1684771985    -0.9895379243
 F      2.2982796632     4.2974171705    -0.7341810085
 H     -0.9393961245     2.8467742605     0.9310886875
 F     -0.3533038249     3.4065134675     0.5020469218
 H      1.2845350876     1.4656441124     4.3522178614
 F      1.5747628100     1.0558768463     5.1195167972
          24
Energy: -95.55056407720575 Kcal/mole
 H      1.5277989919     6.8695925901    -1.8184036331
 F      2.3667383705     6.7313548264    -1.4749505219
 H     -1.9043950854     0.1300180375     4.2248859468
 F     -1.8927519273     1.0283871027     4.0413472329
 H      2.4206013284     3.8043218505     0.8527569171
 F      2.5103806777     3.5656577453     1.7335906774
 H     -0.8190185148    -1.5147673116     4.9741856742
 F     -1.6491333698    -1.4465970891     4.5905828220
 H     -0.4986038569     6.0232941814    -2.1382241471
 F     -0.0485140111     6.8020406752    -2.3167235287
 H      1.3457530405     2.6329111497     2.4536901839
 F      0.7621551614     2.0934302578     2.9111427856
 H     -2.0091408654     1.5985405902     2.4816141792
 F     -2.0932644802     1.8743870747     1.6111425056
 H     -0.8517302027     4.1235484050    -0.9120901659
 F     -1.1348868646     4.5644162917    -1.6646503371
 H      1.0867157841    -0.4912789789     5.4656313089
 F      0.7142849144    -1.3228442019     5.5689924586
 H      2.4281850090     5.1681136308    -0.9908932361
 F      2.2982920812     4.2974364569    -0.7341091123
 H     -0.9389440579     2.8468461647     0.9317991642
 F     -0.3533278060     3.4065096531     0.5020092326
 H      1.2844810984     1.4663698301     4.3526263218
 F      1.5747656740     1.0558383487     5.1194951293
          24
Energy: -95.5512117792517 Kcal/mole
 H      1.5288853443     6.8683534535    -1.8215367561
 F      2.3666807421     6.7314205598    -1.4747843170
 H     -1.9067218856     0.1301550983     4.2253928919
 F     -1.8926284959     1.0283798320     4.0413203406
 H      2.4220220411     3.8082830638     0.8536965247
 F      2.5103053122     3.5654476121     1.7335408334
 H     -0.8193378197    -1.5156955844     4.9747099849
 F     -1.6491164314    -1.4465478464     4.5905550086
 H     -0.4996805265     6.0243548307    -2.1363289859
 F     -0.0484568963     6.8019844102    -2.3168240626
 H      1.3439446238     2.6374245706     2.4567437756
 F      0.7622510938     2.0931908312     2.9109807997
 H     -2.0082559756     1.5959406962     2.4806997056
 F     -2.0933114216     1.8745249931     1.6111910164
 H     -0.8561671670     4.1229610863    -0.9107800046
 F     -1.1346514939     4.5644474476    -1.6647198381
 H      1.0853690898    -0.4908091787     5.4645746066
 F      0.7143563535    -1.3228691237     5.5690485142
 H      2.4265938106     5.1679934289    -0.9920975089
 F      2.2983764906     4.2974428334    -0.7340452284
 H     -0.9391864695     2.8451506336     0.9292494194
 F     -0.3533149467     3.4065995971     0.5021444907
 H      1.2824803998     1.4660902865     4.3532370593
 F      1.5748718065     1.0558531778     5.1194627311
          24
Energy: -95.55118110787664 Kcal/mole
 H      1.5287405164     6.8695516805    -1.8207104047
 F      2.3666884248     6.7313569966    -1.4748281530
 H     -1.9063594777     0.1306591669     4.2278618206
 F     -1.8926477208     1.0283530923     4.0411893697
 H      2.4199302821     3.8063273434     0.8533716062
 F      2.5104162752     3.5655513586     1.7335580695
 H     -0.8188113890    -1.5159845209     4.9735184406
 F     -1.6491443574    -1.4465325189     4.5906182172
 H     -0.4971207749     6.0230296640    -2.1356645655
 F     -0.0485926852     6.8020547072    -2.3168593086
 H      1.3423623016     2.6394929241     2.4572037191
 F      0.7623350323     2.0930811098     2.9109564007
 H     -2.0083623775     1.5961356877     2.4807725546
 F     -2.0933057772     1.8745146492     1.6111871519
 H     -0.8567001068     4.1225169340    -0.9108435739
 F     -1.1346232227     4.5644710088    -1.6647164659
 H      1.0879162686    -0.4916910656     5.4666551041
 F      0.7142212315    -1.3228223416     5.5689381487
 H      2.4279726923     5.1682757982    -0.9904502263
 F      2.2983033441     4.2974278543    -0.7341326129
 H     -0.9395925844     2.8445868515     0.9279485418
 F     -0.3532934032     3.4066295045     0.5022134992
 H      1.2831009098     1.4677326464     4.3538819962
 F      1.5748388899     1.0557660544     5.1194285187
          24
Energy: -95.55047518447815 Kcal/mole
 H      1.5295442936     6.8732041435    -1.8211767302
 F      2.3666457863     6.7311632419    -1.4748034155
 H     -1.9067057380     0.1300362371     4.2248131147
 F     -1.8926293525     1.0283861373     4.0413510965
 H      2.4227244028     3.8037489127     0.8523882547
 F      2.5102680536     3.5656881384     1.7336102341
 H     -0.8184690839    -1.5161668305     4.9727420358
 F     -1.6491625159    -1.4465228478     4.5906594037
 H     -0.4986012833     6.0237822711    -2.1361022332
 F     -0.0485141477     6.8020147831    -2.3168360913
 H      1.3443718344     2.6352392531     2.4546832396
 F      0.7622284312     2.0933067572     2.9110901063
 H     -2.0110297386     1.5966353312     2.4811884957
 F     -2.0931642798     1.8744881443     1.6111650872
 H     -0.8554149912     4.1220352421    -0.9116014512
 F     -1.1346913951     4.5644965615    -1.6646762622
 H      1.0870371534    -0.4908210665     5.4706006710
 F      0.7142678665    -1.3228684931     5.5687288455
 H      2.4248585804     5.1683045866    -0.9919035633
 F      2.2984685406     4.2974263272    -0.7340555168
 H     -0.9368704045     2.8451742205     0.9324382859
 F     -0.3534378086     3.4065983459     0.5019753287
 H      1.2824170216     1.4667484880     4.3536140436
 F      1.5748751685     1.0558182617     5.1194427329
          24
Energy: -95.55073771674697 Kcal/mole
 H      1.5298890885     6.8717576985    -1.8225967494
 F      2.3666274958     6.7312399724    -1.4747280868
 H     -1.9047959391     0.1309955550     4.2295788042
 F     -1.8927306629     1.0283352477     4.0410982877
 H      2.4202171761     3.8028951928     0.8524108919
 F      2.5104010561     3.5657334262     1.7336090332
 H     -0.8185782926    -1.5190809231     4.9724364561
 F     -1.6491567226    -1.4463682620     4.5906756140
 H     -0.4969034446     6.0229325674    -2.1355442497
 F     -0.0486042141     6.8020598579    -2.3168656911
 H      1.3462727784     2.6362808845     2.4583657653
 F      0.7621275905     2.0932515011     2.9108947569
 H     -2.0064647017     1.5938646992     2.4798543631
 F     -2.0934064445     1.8746351199     1.6112358598
 H     -0.8550257516     4.1241854413    -0.9104866799
 F     -1.1347120434     4.5643824984    -1.6647353983
 H      1.0874170756    -0.4912940397     5.4680698321
 F      0.7142477125    -1.3228434029     5.5688631006
 H      2.4267814130     5.1689114583    -0.9888844275
 F      2.2983665387     4.2973941340    -0.7342156750
 H     -0.9406396776     2.8467956647     0.9294125105
 F     -0.3532378573     3.4065123320     0.5021358391
 H      1.2852583741     1.4676232287     4.3530046774
 F      1.5747244414     1.0557718588     5.1194750584
          24
Energy: -95.55117925731453 Kcal/mole
 H      1.5287382837     6.8707703918    -1.8202154348
 F      2.3666885433     6.7312923468    -1.4748544100
 H     -1.9046355442     0.1303757963     4.2266127322
 F     -1.8927391715     1.0283681245     4.0412556309
 H      2.4203804953     3.8085110731     0.8539258422
 F      2.5103923924     3.5654355168     1.7335286686
 H     -0.8194871055    -1.5175163753     4.9747001276
 F     -1.6491085122    -1.4464512576     4.5905555315
 H     -0.4967058073     6.0235848482    -2.1322849953
 F     -0.0486146983     6.8020252559    -2.3170385870
 H      1.3461241157     2.6344155511     2.4559463715
 F      0.7621354768     2.0933504527     2.9110231001
 H     -2.0098402709     1.5984492526     2.4816525246
 F     -2.0932273784     1.8743919200     1.6111404715
 H     -0.8549302048     4.1225341130    -0.9114884741
 F     -1.1347171119     4.5644700975    -1.6646822554
 H      1.0849045216    -0.4903209772     5.4668411649
 F      0.7143809977    -1.3228950217     5.5689282786
 H      2.4286744266     5.1688138031    -0.9882558354
 F      2.2982661188     4.2973993144    -0.7342490203
 H     -0.9398771408     2.8469800921     0.9306996068
 F     -0.3532783081     3.4065025486     0.5020675616
 H      1.2824347742     1.4664212547     4.3534317732
 F      1.5748742268     1.0558356207     5.1194524019
          24
Energy: -95.55146857965573 Kcal/mole
 H      1.5293878911     6.8718630706    -1.8213458759
 F      2.3666540831     6.7312343827    -1.4747944428
 H     -1.9042032882     0.1306397004     4.2279134660
 F     -1.8927621017     1.0283541249     4.0411866300
 H      2.4212179047     3.8060054168     0.8531522537
 F      2.5103479698     3.5655684360     1.7335697057
 H     -0.8184613268    -1.5171931570     4.9725365880
 F     -1.6491629274    -1.4464684036     4.5906703022
 H     -0.4980983517     6.0242120797    -2.1330278394
 F     -0.0485408270     6.8019919828    -2.3169991808
 H      1.3434607877     2.6360569297     2.4544938770
 F      0.7622767602     2.0932633814     2.9111001516
 H     -2.0103165687     1.5957650641     2.4808423996
 F     -2.0932021119     1.8745343100     1.6111834468
 H     -0.8532607405     4.1201565648    -0.9107076334
 F     -1.1358885483     4.5643197015    -1.6615269394
 H      1.0860973116    -0.4905314648     5.4694977052
 F      0.7143177230    -1.3228838558     5.5687873552
 H      2.4270997077     5.1675238354    -0.9934257681
 F      2.2983496539     4.2974677442    -0.7339747673
 H     -0.9408130324     2.8472213550     0.9297314425
 F     -0.3532286613     3.4064897501     0.5021189205
 H      1.2857341054     1.4655055158     4.3516915116
 F      1.5746992049     1.0558841985     5.1195447188
          24
Energy: -95.55097348768248 Kcal/mole
 H      1.5290375046     6.8731487533    -1.8199720557
 F      2.3666726703     6.7311661802    -1.4748673207
 H     -1.9059528534     0.1306851756     4.2280162272
 F     -1.8926692913     1.0283517126     4.0411811788
 H      2.4194963979     3.8072936333     0.8536812691
 F      2.5104392918     3.5655000991     1.7335416426
 H     -0.8182108039    -1.5168228048     4.9720596100
 F     -1.6491762170    -1.4464880499     4.5906956048
 H     -0.4949360825     6.0218158860    -2.1354933228
 F     -0.0487085781     6.8021190953    -2.3168683926
 H      1.3424702410     2.6364646095     2.4537197213
 F      0.7623293064     2.0932417549     2.9111412188
 H     -2.0106299255     1.5950357271     2.4806380693
 F     -2.0931854890     1.8745729996     1.6111942860
 H     -0.8543921740     4.1223280363    -0.9090033935
 F     -1.1358285284     4.5642045100    -1.6616173454
 H      1.0866240807    -0.4909493670     5.4679814206
 F      0.7142897791    -1.3228616870     5.5688677906
 H      2.4259976605     5.1683328803    -0.9912461223
 F      2.2984081150     4.2974248263    -0.7340903925
 H     -0.9396104113     2.8458482394     0.9295839620
 F     -0.3532924575     3.4065625908     0.5021267440
 H      1.2866321234     1.4658456174     4.3515356424
 F      1.5746515671     1.0558661569     5.1195529873
          24
Energy: -95.55036262036293 Kcal/mole
 H      1.5286745526     6.8704712824    -1.8201814582
 F      2.3666919241     6.7313082138    -1.4748562124
 H     -1.9068354365     0.1309924635     4.2294218417
 F     -1.8926224723     1.0283354117     4.0411066142
 H      2.4191009332     3.8062737881     0.8534426320
 F      2.5104602702     3.5655541996     1.7335543018
 H     -0.8189805321    -1.5169875909     4.9737018235
 F     -1.6491353847    -1.4464793084     4.5906084892
 H     -0.4983666067     6.0243164541    -2.1332424580
 F     -0.0485265967     6.8019864459    -2.3169877958
 H      1.3477581867     2.6320237466     2.4552099255
 F      0.7620487931     2.0934773324     2.9110621669
 H     -2.0088653304     1.5957068200     2.4806841224
 F     -2.0932790967     1.8745373997     1.6111918430
 H     -0.8563731228     4.1216461979    -0.9086661001
 F     -1.1357234436     4.5642406799    -1.6616352380
 H      1.0890530663    -0.4922638045     5.4661640603
 F      0.7141609270    -1.3227919592     5.5689641974
 H      2.4266380545     5.1694449996    -0.9871238115
 F      2.2983741436     4.2973658309    -0.7343090716
 H     -0.9398005636     2.8475423852     0.9315371476
 F     -0.3532823704     3.4064727202     0.5020231320
 H      1.2832943741     1.4615191239     4.3504990129
 F      1.5748286270     1.0560956674     5.1196079781
          24
Energy: -95.55132262748529 Kcal/mole
 H      1.5278727504     6.8703309327    -1.8182857565
 F      2.3667344578     6.7313156591    -1.4749567750
 H     -1.9046538947     0.1304912392     4.2271699154
 F     -1.8927381981     1.0283620005     4.0412260736
 H      2.4227803216     3.8070318470     0.8532764921
 F      2.5102650872     3.5655139863     1.7335631151
 H     -0.8195922264    -1.5155415704     4.9752866513
 F     -1.6491029357    -1.4465560164     4.5905244177
 H     -0.4975092617     6.0236495910    -2.1339708126
 F     -0.0485720769     6.8020218215    -2.3169491583
 H      1.3437220065     2.6363501502     2.4551756467
 F      0.7622629031     2.0932478267     2.9110639853
 H     -2.0099243272     1.5959932181     2.4808780252
 F     -2.0932229194     1.8745222069     1.6111815569
 H     -0.8567703226     4.1210948248    -0.9088431809
 F     -1.1357023731     4.5642699290    -1.6616258443
 H      1.0861394927    -0.4912119279     5.4641077959
 F      0.7143154854    -1.3228477588     5.5690732775
 H      2.4243100764     5.1687929634    -0.9905179168
 F      2.2984976374     4.2974004199    -0.7341290221
 H     -0.9391927375     2.8467191077     0.9312944638
 F     -0.3533146142     3.4065163932     0.5020360058
 H      1.2839223039     1.4681752354     4.3538077503
 F      1.5747953168     1.0557425761     5.1194324572
          24
Energy: -95.55112905318688 Kcal/mole
 H      1.5297752266     6.8691696901    -1.8233572392
 F      2.3666335359     6.7313772603    -1.4746877446
 H     -1.9085642114     0.1309564106     4.2291109376
 F     -1.8925307648     1.0283373242     4.0411231069
 H      2.4187881225     3.8063807753     0.8535044329
 F      2.5104768641     3.5655485241     1.7335510234
 H     -0.8176688058    -1.5165857293     4.9709200818
 F     -1.6492049688    -1.4465006262     4.5907560542
 H     -0.4989143992     6.0244649240    -2.1339575631
 F     -0.0484975376     6.8019785700    -2.3169498611
 H      1.3441049207     2.6372475085     2.4567369742
 F      0.7622425904     2.0932002239     2.9109811605
 H     -2.0109955151     1.5959788723     2.4809753275
 F     -2.0931660953     1.8745229679     1.6111763953
 H     -0.8564858594     4.1219350337    -0.9084545961
 F     -1.1357174632     4.5642253579    -1.6616464578
 H      1.0849553205    -0.4899432981     5.4701633847
 F      0.7143783030    -1.3229150567     5.5687520425
 H      2.4294214422     5.1680823201    -0.9903702604
 F      2.2982264913     4.2974381179    -0.7341368549
 H     -0.9380066034     2.8448114479     0.9304184562
 F     -0.3533775358     3.4066175901     0.5020824760
 H      1.2857142410     1.4652408649     4.3515578663
 F      1.5747002587     1.0558982377     5.1195518084
          24
Energy: -95.5518777292951 Kcal/mole
 H      1.5282518789     6.8682490950    -1.8200434273
 F      2.3667143459     6.7314260957    -1.4748635346
 H     -1.9045474135     0.1303079428     4.2262893287
 F     -1.8927438467     1.0283717239     4.0412727867
 H      2.4216217939     3.8007180637     0.8501951388
 F      2.5118879254     3.5576270409     1.7297676373
 H     -0.8188067909    -1.5164090026     4.9734312169
 F     -1.6491446013    -1.4465100012     4.5906228442
 H     -0.4985560797     6.0243388620    -2.1336119780
 F     -0.0485165456     6.8019852573    -2.3169681936
 H      1.3452328622     2.6343948019     2.4547804705
 F      0.7621827557     2.0933515534     2.9110849485
 H     -2.0088172029     1.5959376450     2.4807534348
 F     -2.0932816497     1.8745251550     1.6111881661
 H     -0.8538489652     4.1218467221    -0.9094896481
 F     -1.1358573443     4.5642300426    -1.6615915507
 H      1.0852432076    -0.4902867729     5.4683618995
 F      0.7143630312    -1.3228968361     5.5688476071
 H      2.4271318036     5.1689408513    -0.9886067432
 F      2.2983479513     4.2973925748    -0.7342304055
 H     -0.9413479165     2.8472706663     0.9290600390