          6
Energy: -0.2541058365341705 Kcal/mole
 He    -0.9856073845     2.3096451423    -2.9316036390
 He     0.3419537131    -0.5169158300    -0.3863403377
 He    -1.8345411251    -0.3306604412    -2.2352613367
 He    -1.4802433504     1.6454788653    -0.2078140167
 He     1.1938086169     2.1371329113    -1.0980950591
 He     0.8355520142     0.1288691355    -3.1139323140
