          6
Energy: -0.2540634245259159 Kcal/mole
 He     4.3187769461     5.0446447925    -2.3337522293
 He     6.0331132652     1.3809875049    -2.4476579528
 He     6.3170240290     3.6942220466    -0.7869301145
 He     4.0192978090     2.7557337550    -3.9866373815
 He     6.6178644177     3.9297904079    -3.6041726756
 He     3.7423746700     2.4958051996    -1.1589467938
