          6
Energy: 0.009681010290099781 Kcal/mole
 He    -4.8560241209    -1.7679453250     6.4807930106
 He    -2.5377709226    -5.8083326408     2.1660550343
 He     1.8377062165    -2.9846642644    -4.3417809120
 He    -4.4423855752    -3.3186712977    -0.8120396802
 He     1.0713337649     2.8385744532    -6.1890427585
 He    -5.0228603671    -5.5149614839    -1.8290439439
          6
Energy: -0.003079083407153528 Kcal/mole
 He     2.4688707361     0.1792144888    -0.7894656351
 He     3.3939151975    -3.7610208718    -4.5732609807
 He    -1.0564233487     1.6317841591    -7.1633267356
 He    -1.5184025816    -5.8726741986    -4.0718940491
 He     6.1376657412     4.2804294338     5.0933490517
 He     3.3518425383     4.9990310496    -4.8957670588
          6
Energy: -0.024628267763638356 Kcal/mole
 He    -0.8250948944    -0.2874113902    -6.7385758216
 He    -6.5110139941     1.3242776362     2.6389234153
 He    -3.5073215443     5.4700231622    -6.2621666051
 He    -6.8131164235     3.1465932697    -6.7114760816
 He    -4.5796788455     0.1772452967     0.6659813524
 He     0.3048717395     6.4841643410     2.7669368448
          6
Energy: -0.0034377200508724057 Kcal/mole
 He    -4.4959952089     2.1341845065     3.4525319488
 He    -4.8438426772    -1.6904239527    -1.2327074317
 He    -2.7122088771    -5.6345239475     2.0731563433
 He    -0.9164089021    -2.9170524042    -7.2513383383
 He    -5.5657771776    -4.4165426535     5.9371835903
 He     2.3271418584    -5.9313445139     7.4971361698
          6
Energy: -0.011201211418168086 Kcal/mole
 He    -4.5969749251    -4.4913809009     5.7314840065
 He    -5.0762149984     3.6307215008    -4.4375461034
 He    -6.9161993758    -2.1122400337    -2.0357132215
 He     6.2043945819    -4.3031792200     2.7984635734
 He     1.7721739658     7.0573832963    -0.0756173021
 He    -4.5407915272    -3.9600732954    -3.7801515350
          6
Energy: -0.029894546889938166 Kcal/mole
 He     0.1274730305    -3.8173942046    -6.7769640248
 He    -3.6392627440    -3.7674439417    -5.3975843300
 He    -2.0525036387    -0.3039276055    -3.8970689752
 He    -5.4930261980    -5.6482861887    -4.6391030900
 He    -6.0837150283    -4.0014329475     7.4975913867
 He    -2.0354363497     2.0517693755     4.8637954569
          6
Energy: -0.02067095840248073 Kcal/mole
 He    -5.3176411557     6.3684506326    -7.1379800023
 He    -1.9402814048    -1.5272713338     5.7511924649
 He     7.0394732763    -5.3779070031     5.8566359066
 He    -6.8244260078     3.9542902842    -6.1169619965
 He     1.7020193219    -2.1911411012     2.7282072576
 He     6.8817384109    -6.9814539737    -3.4625553528
          6
Energy: -0.10812085289967413 Kcal/mole
 He     3.9763504072     5.2616581850    -1.9348482364
 He     3.2175511345     5.8274775033     0.7836666750
 He    -2.2779605619    -6.7440343946    -2.0306276688
 He     1.5727000630     3.7953678395    -0.5601075777
 He     0.8243238655     6.3826297720     3.4584797840
 He     1.5547567793     4.9242086430    -3.3450336301
          6
Energy: -0.23804673532019602 Kcal/mole
 He    -0.9984477951     2.3126432162    -2.9125822484
 He     0.1658484643    -0.9103697366    -0.3221509284
 He    -1.6336175437    -0.3343709068    -2.3967293688
 He    -1.5682461063     1.4779373018    -0.0599415920
 He     1.1949099536     1.9823508913    -1.0125128032
 He     1.0490558346     0.2323896171    -3.0934587402
          6
Energy: -0.2541058365341705 Kcal/mole
 He    -0.9856073845     2.3096451423    -2.9316036390
 He     0.3419537131    -0.5169158300    -0.3863403377
 He    -1.8345411251    -0.3306604412    -2.2352613367
 He    -1.4802433504     1.6454788653    -0.2078140167
 He     1.1938086169     2.1371329113    -1.0980950591
 He     0.8355520142     0.1288691355    -3.1139323140
