          8
Energy: -28.70093702987151 Kcal/mole
 H     -1.4046292258     4.2812907880     3.8158781841
 F     -0.9267425759     3.7049183810     4.3453195862
 H     -1.3472841578     4.0062348244     5.9444470857
 F     -1.7711623096     4.3897496461     6.6614775550
 H     -3.1263355482     5.1692676080     6.1206772306
 F     -3.7821039526     5.4920367629     5.5668930917
 H     -3.0852983346     5.5553252559     4.0204678857
 F     -2.5257830007     5.4283752631     3.3051251074
          8
Energy: -28.523479208327018 Kcal/mole
 H     -0.9342239223     3.2602982167     4.3017890036
 F     -0.6385600530     2.8896139505     5.0866871187
 H     -1.1593148055     4.0494610118     6.3509600065
 F     -1.5418849939     4.7862474093     6.7404145679
 H     -2.2517008232     5.7908828290     5.5245656138
 F     -2.5572360258     6.0488679159     4.6993499238
 H     -2.0482033624     4.9413112498     3.5096846525
 F     -1.6279277323     4.2291451448     3.1133554539
          8
Energy: -28.784568215202256 Kcal/mole
 H     -0.4883387295     3.6461861204     4.7112716813
 F     -0.1967851160     3.7507018006     5.5743834719
 H      0.3338366755     5.3426890976     5.6962409561
 F      0.5611913146     6.2081340809     5.4957319812
 H      0.1348544112     6.6066827895     3.9070169117
 F     -0.2089100039     6.5483726926     3.0588925343
 H     -0.6958674440     4.9275800591     2.9172931236
 F     -0.9042020246     4.0496777087     3.0809182000
          8
Energy: -28.54209953335564 Kcal/mole
 H      0.4507607120     3.2383712213     4.2837443781
 F      0.6615186534     3.3512161832     5.1690330908
 H      0.2232077005     4.9168711820     5.7202988973
 F     -0.0820705302     5.7800844500     5.6697315584
 H     -0.2605249683     6.2384297775     4.1366830641
 F     -0.3761559968     6.2377820606     3.2270028754
 H     -0.1871827243     4.6590507191     2.7407053571
 F     -0.0598471408     3.7510430095     2.7266822193
          8
Energy: -28.7075596564884 Kcal/mole
 H      0.5686505733     3.6373262347     4.5203724329
 F      1.0693393202     4.1002729662     5.1334630481
 H      0.3556272324     5.5729679357     5.5397130415
 F     -0.2402512957     6.2699587330     5.5350645782
 H     -1.4905161488     5.7191687911     4.5316433619
 F     -1.9914856752     5.2289043964     3.9404079123
 H     -1.1783870771     3.8052266515     3.4204340816
 F     -0.5488447037     3.1401027193     3.3737912372
          8
Energy: -28.69161230503252 Kcal/mole
 H     -0.0394075192     3.5883324333     5.8378201480
 F      0.2109058068     4.1212608056     6.5408276792
 H     -0.7601713494     5.5422166735     6.4751947827
 F     -1.3726087011     6.1663128367     6.1989458563
 H     -1.9553419086     5.5440369389     4.7566314826
 F     -2.1790458374     4.9856335449     4.0645106826
 H     -1.2821713421     3.6053995288     4.1438706068
 F     -0.6620986872     2.9890399725     4.4204565790
          8
Energy: -28.72867803914167 Kcal/mole
 H     -0.1340446535     3.5331844037     5.9747273591
 F      0.0580556629     4.0896686489     6.6778004372
 H     -1.3768114619     4.9152743970     7.1230409263
 F     -2.2607094307     5.1593327753     7.1160488698
 H     -3.0694956934     4.3074041447     5.8901389325
 F     -3.2458496804     3.8300010954     5.1273318797
 H     -1.8295014014     3.0373025207     4.6828626877
 F     -0.9469867950     2.7883314106     4.6912505299
          8
Energy: -28.758363898194148 Kcal/mole
 H     -0.3933386670     4.3079606184     6.3011534169
 F     -0.6493079606     4.6964070009     7.0913927026
 H     -2.3596447431     4.8821952072     7.0836172983
 F     -3.2438065534     4.8043699176     6.8532043698
 H     -3.3543112252     3.8472955190     5.4832536771
 F     -3.0938724596     3.3520399866     4.7567671961
 H     -1.3988934555     3.4085404184     4.6631751582
 F     -0.5092936655     3.5809987446     4.8037430752
          8
Energy: -28.753613304851058 Kcal/mole
 H     -0.6103137869     3.3955620068     5.9315322291
 F     -0.3587880754     4.0672199977     6.5029334539
 H     -1.8548657239     4.7504219161     7.0606657695
 F     -2.7584146261     4.8788563583     7.1500692110
 H     -3.6013138056     3.9896992694     5.9944304923
 F     -3.7664837878     3.3878870730     5.3225451172
 H     -2.3258211385     2.5901919612     4.9313573608
 F     -1.4448935750     2.3355244088     4.9316137188
          8
Energy: -28.73291409369739 Kcal/mole
 H     -0.7064727871     3.9412236298     4.5959549187
 F     -0.2073230532     4.0748590070     5.3535036822
 H     -1.2078751372     4.4365471383     6.6061332328
 F     -1.9529471533     4.5836873900     7.1200461019
 H     -3.2338260508     4.5810483793     6.1220072106
 F     -3.7906449359     4.4712495273     5.4017392456
 H     -2.8302161531     4.0222251247     4.0608243108
 F     -2.0728227229     3.7997192586     3.5942031247
          8
Energy: -28.71976278384207 Kcal/mole
 H      0.2040787040     4.1353427393     4.2274826691
 F      0.7524066348     3.9937008480     4.9487059735
 H     -0.0512526688     4.6268281095     6.2410099441
 F     -0.7185322595     5.0281068347     6.7253675935
 H     -1.9986953932     5.5523680854     5.7981700023
 F     -2.5558858335     5.7572125570     5.0992661780
 H     -1.7031315361     5.1211201652     3.8187835849
 F     -1.0845505613     4.6669716009     3.3167918926
          8
Energy: -28.748167350626318 Kcal/mole
 H      0.2533687267     4.7105176647     4.0071060726
 F      0.8534289755     4.5760189341     4.6873463164
 H      0.0312847045     5.0168784668     6.0955362391
 F     -0.6231272497     5.3733404093     6.6299226889
 H     -1.9108820331     5.8315592951     5.7128530529
 F     -2.4665735016     5.9880532583     5.0003885757
 H     -1.6504293043     5.4802311658     3.6475708465
 F     -1.0163344111     5.1101814216     3.0981385456
          8
Energy: -28.77678508323325 Kcal/mole
 H     -0.2566601082     3.9900872944     4.8717888287
 F      0.5595560913     4.1556495217     5.2555456066
 H      0.4913977327     5.7591782902     5.7822547592
 F      0.2322425109     6.6187062925     5.9691750211
 H     -1.3303162910     6.7057061988     5.3842087100
 F     -2.1409129381     6.4991850346     5.0084813031
 H     -2.1036623672     4.9232551297     4.4895758700
 F     -1.7828235677     4.0814337866     4.3184376477
          8
Energy: -28.65454054261184 Kcal/mole
 H     -0.5173346136     3.7036002126     5.3634784855
 F      0.3687682045     3.9117092544     5.2521168114
 H      0.7116754231     5.2301198662     6.1593345736
 F      0.6289179295     6.0046560980     6.6432083412
 H     -0.9811447956     6.1320698148     7.0586436773
 F     -1.8842992809     5.9997444263     7.1463418372
 H     -2.1841760586     4.5302458466     6.3658364371
 F     -2.0572943129     3.7736827980     5.8634398048
          8
Energy: -28.697861562748926 Kcal/mole
 H     -0.2024112473     3.7557991925     6.7515970508
 F      0.6190560211     4.0528899952     7.0305550798
 H      0.6257099261     5.6550284045     6.5240053654
 F      0.4068243342     6.4550643597     6.1329547703
 H     -1.2051294300     6.4359836411     5.5856694591
 F     -2.0517791875     6.1230074016     5.4240555311
 H     -2.0311344713     4.4801498684     5.7661150922
 F     -1.6904098916     3.6626421772     6.0037638576
          8
Energy: -28.760320761188694 Kcal/mole
 H     -0.3579460213     3.7494438695     6.2163812600
 F      0.4628604618     4.0396607283     6.5043741282
 H      0.6097901681     5.7143962604     6.2572120228
 F      0.4248971742     6.5921331081     6.0667347091
 H     -1.1704160667     6.6145881289     5.4869415659
 F     -1.9768808284     6.2944495951     5.1902685012
 H     -2.1484804168     4.6286913623     5.4674743328
 F     -1.9669177119     3.7491986436     5.6529912918
          8
Energy: -28.6892260497697 Kcal/mole
 H     -0.1592169100     3.9271572345     5.7844561731
 F      0.7340331819     4.1284589289     5.7347480124
 H      0.8884651831     5.7242474694     5.1894339410
 F      0.7163844356     6.5936677276     4.9540924211
 H     -0.9281720746     6.8743065298     5.4089270080
 F     -1.8026087005     6.7202790849     5.6381106318
 H     -1.9934638479     5.0850968711     5.8343201999
 F     -1.8495013050     4.1804285070     5.8760207648
          8
Energy: -28.799402065749007 Kcal/mole
 H     -0.6595639636     3.9272862730     5.0772497671
 F      0.2476788120     3.8480102347     4.9699424710
 H      0.8792585518     5.3584049084     4.8846145803
 F      0.9951940556     6.2680345511     4.8892913277
 H     -0.5436314517     6.8873259883     4.9480801082
 F     -1.4546799213     6.9719717151     5.0090291608
 H     -2.1085868549     5.4646750555     5.2832619531
 F     -2.1996955286     4.5532283634     5.3263100317
          8
Energy: -28.620446589615057 Kcal/mole
 H     -0.5107570130     3.7528192911     4.9130485237
 F      0.2920560328     3.6782271506     4.4762233571
 H      0.9400706594     5.2567529467     4.3520277680
 F      1.0486094290     6.1599627635     4.4674416418
 H     -0.2750055807     6.7826671256     5.3884429713
 F     -1.1152368934     6.8362685979     5.7517984769
 H     -1.7084893574     5.2522923442     5.7828258319
 F     -1.8212054651     4.3425398714     5.7597061990
          8
Energy: -28.81331672381674 Kcal/mole
 H     -0.5612124873     3.8297101157     5.2553614472
 F      0.1645126604     3.7752338663     4.6974686723
 H      1.0472109498     5.2158809525     4.8462123848
 F      1.2861703730     6.0637007595     5.1011417259
 H      0.1096688316     6.6323489216     6.2327222279
 F     -0.6241213795     6.6585402880     6.7820444815
 H     -1.4661973274     5.2259217835     6.5874373028
 F     -1.6809282625     4.3633425525     6.3621892268
          8
Energy: -28.72954793855905 Kcal/mole
 H     -0.6859356946     3.7086762943     4.9526977107
 F      0.1278056605     3.4906564849     4.5905080233
 H      1.1798051609     4.6244972523     5.1895809946
 F      1.5391114049     5.3531225340     5.6148964326
 H      0.2326586585     6.3067124586     6.1292231468
 F     -0.6107580716     6.5873579567     6.3545569521
 H     -1.6538414940     5.2588728007     6.0582798396
 F     -1.9674082346     4.4705113334     5.7103558593
          8
Energy: -28.652805421568047 Kcal/mole
 H     -0.5082231230     3.3476882439     5.2051728518
 F      0.2075086881     3.1753519973     4.6584396511
 H      1.3603657612     4.3572521877     4.9253895526
 F      1.7589078330     5.1309623391     5.2142248318
 H      0.7160401101     5.7835020784     6.3484768161
 F     -0.0138218970     6.0415967858     6.8399822308
 H     -1.2037179798     4.8555670366     6.6247696447
 F     -1.5912402231     4.0845399291     6.3145556692
          8
Energy: -28.787980022531514 Kcal/mole
 H     -0.1921364355     2.6744236602     6.0529036511
 F      0.2054619819     2.4806395821     5.2496277149
 H      0.8698301105     3.9511099112     4.7792434220
 F      1.1444825843     4.8244524248     4.7270143819
 H      0.7473271690     5.5949651124     6.1938906780
 F      0.3902071240     5.7268520935     7.0281329076
 H     -0.4449856385     4.3410450572     7.4436829059
 F     -0.7983382465     3.4950512413     7.4256441158
          8
Energy: -28.81507354204558 Kcal/mole
 H     -0.6428077718     2.8852838436     5.7490742931
 F     -0.3640078723     2.6473980087     4.9084971428
 H      0.2125037250     4.0003939991     4.2160772870
 F      0.4841564827     4.8603884021     4.0502357783
 H      0.3525612581     5.7226861112     5.4875525180
 F      0.1663199367     5.9351073364     6.3599517347
 H     -0.5329340833     4.5651179784     7.0926281193
 F     -0.8861123190     3.7235245967     7.1813677037
          8
Energy: -28.753587329649577 Kcal/mole
 H     -2.1155938869     3.6585252232     5.8836634984
 F     -2.2225393495     3.6362945035     4.9731924867
 H     -1.1406520459     4.6451202939     4.2517072523
 F     -0.5229832852     5.3133085234     4.1381344029
 H      0.0989482145     5.6916892713     5.6764542071
 F      0.2400075437     5.7000020244     6.5825017576
 H     -0.9044728811     4.6740167586     7.3412075333
 F     -1.5704712521     4.0499358973     7.4298542947
          8
Energy: -28.74855609523098 Kcal/mole
 H     -1.9033400519     2.7546542379     5.6783066637
 F     -2.2938798670     2.9447294422     4.8706934707
 H     -1.5121128860     4.2206867978     4.0440871920
 F     -0.9477206762     4.9312925708     3.9122165402
 H     -0.1582807720     5.2160857477     5.3772934477
 F      0.1261931789     5.1708443703     6.2478776131
 H     -0.4806399017     3.7434888125     6.9341440022
 F     -0.8902655187     2.9289175129     7.0319675773
          8
Energy: -28.62942238763324 Kcal/mole
 H     -2.1344308488     2.8886802425     5.4240388166
 F     -2.1247593422     2.6946053057     4.5278633980
 H     -0.8399254460     3.4150424600     3.8484452760
 F     -0.0570020836     3.8559867658     3.6654476590
 H      0.4315507641     4.4317311400     5.1002713739
 F      0.4582821544     4.6893320328     5.9799396141
 H     -0.8997277915     4.0086419441     6.7357852960
 F     -1.6541030087     3.5044333032     6.8683774459
          8
Energy: -28.778377208385024 Kcal/mole
 H     -2.5316588322     3.5379925624     5.0982916530
 F     -2.6868414835     3.2601679967     4.2382795278
 H     -1.2131296375     3.5743698781     3.4292863240
 F     -0.3732464858     3.8678878854     3.2071771822
 H      0.3460510888     4.5570285690     4.5705826760
 F      0.4345086922     4.8719646662     5.4272503520
 H     -0.9716355948     4.5094241803     6.2834617991
 F     -1.7953111528     4.1620545454     6.4878680412
          8
Energy: -28.709363865059316 Kcal/mole
 H     -2.6491024803     5.2489102081     4.5122915775
 F     -2.8039647300     4.9772888483     3.6502425531
 H     -1.3215291866     4.5231227092     3.0825291484
 F     -0.4216516231     4.3507022451     3.0453733387
 H      0.2797567912     4.5814230749     4.5449583031
 F      0.3361328318     4.7085294761     5.4513548525
 H     -1.1114451745     5.3949977633     5.9453185926
 F     -1.9792251008     5.6913876426     5.9455157652
          8
Energy: -28.829332605996825 Kcal/mole
 H     -2.8365508694     4.6578564684     4.5367106691
 F     -2.9322725468     4.3377227826     3.6827547079
 H     -1.5139975397     3.4984800018     3.3465169635
 F     -0.6687130746     3.1532348430     3.4313046595
 H      0.0542101898     3.6935363811     4.8722497175
 F      0.1972926413     4.0924314602     5.6854527229
 H     -1.2899357845     4.7889562356     6.0847542073
 F     -2.1770119684     5.0201569198     6.0617088697
          8
Energy: -28.808870029242655 Kcal/mole
 H     -2.8672724156     4.8770957052     4.2852131301
 F     -2.8163301542     4.7126922760     3.3845104053
 H     -1.3100031125     4.0824700147     3.1217296910
 F     -0.4460738640     3.7941556381     3.2284539800
 H     -0.0242613596     3.9259035044     4.8311636254
 F     -0.0732951644     4.0961870126     5.7308792543
 H     -1.6078140861     4.6446181976     5.9962711553
 F     -2.4906587652     4.8740147906     5.9021888740
          8
Energy: -28.81390565871206 Kcal/mole
 H     -2.8680639379     4.9004537494     4.2952470477
 F     -2.9555983790     4.5851045379     3.4386365198
 H     -1.5959770395     3.6604502484     3.1830638769
 F     -0.7967624734     3.2308299702     3.3156213886
 H     -0.2495247660     3.3729516994     4.9044832788
 F     -0.1515397602     3.6554529978     5.7713632907
 H     -1.4659590344     4.6732048144     5.9622472716
 F     -2.2264957132     5.1682778464     5.8304305307
          8
Energy: -28.770711601114783 Kcal/mole
 H     -2.8487118846     4.5618034780     4.3580098808
 F     -2.9541413937     4.1633738201     3.5388472435
 H     -1.6512534808     3.1547245518     3.3009772919
 F     -0.8992348409     2.6520245226     3.4514752846
 H     -0.2791135704     3.1126357220     4.9665526387
 F     -0.2008901414     3.4956889106     5.7960346155
 H     -1.4960195971     4.5857377181     5.9481669655
 F     -2.2546503905     5.0747540386     5.7862059904
          8
Energy: -28.84997974674738 Kcal/mole
 H     -2.9885686238     4.3479566963     4.4596126707
 F     -3.0910798409     3.9526837446     3.6385525365
 H     -1.7173525517     3.0728679821     3.3496315440
 F     -0.8645971810     2.7452749576     3.4295069976
 H     -0.1569388895     3.4160788414     4.7778992725
 F     -0.0290999397     3.9057677909     5.5425893637
 H     -1.5161126389     4.5839411213     5.9630011316
 F     -2.3868623583     4.8683791898     5.9208239890
          8
Energy: -28.67725789742667 Kcal/mole
 H     -2.7829035581     4.9110813144     3.9757745630
 F     -2.8159649713     4.5374124761     3.1390144168
 H     -1.3403370163     3.7209314979     2.7963363462
 F     -0.4943514995     3.3888326083     2.9184339833
 H     -0.0773541840     3.6521779184     4.5609048298
 F     -0.1063513661     3.9441379425     5.4297014158
 H     -1.5602206812     4.8168130007     5.7360957284
 F     -2.3515824488     5.2586535283     5.5967669768
          8
Energy: -28.758575419883215 Kcal/mole
 H     -2.8943396257     4.7411114139     3.9999279759
 F     -2.8351472537     4.5406389186     3.1070696211
 H     -1.3246085499     3.8981727516     2.8413908126
 F     -0.4794641953     3.5487608415     2.9087060180
 H     -0.1203562649     3.6789295869     4.5284468527
 F     -0.1678276470     3.8323736937     5.4312704091
 H     -1.7029129064     4.4638627156     5.7292795052
 F     -2.5283873624     4.8398045223     5.5945624664
          8
Energy: -28.82262584172281 Kcal/mole
 H     -2.8287847004     4.9891830900     4.0520645010
 F     -2.8808602812     4.7229871457     3.1760982613
 H     -1.4132415831     3.9220186774     2.7941005744
 F     -0.5537569416     3.6194757849     2.8972652447
 H      0.0381491409     4.1252621479     4.3700887155
 F      0.0850761855     4.4737883978     5.2169749568
 H     -1.4554547591     5.0412059240     5.6430549652
 F     -2.3435037032     5.2676023407     5.6113889681
          8
Energy: -28.81026245026365 Kcal/mole
 H     -2.9551874963     4.8405678358     4.0756747795
 F     -3.0575248852     4.2753597490     3.3608630019
 H     -1.5327758036     3.6926168006     3.0363445350
 F     -0.6348520791     3.5139085972     3.0881650242
 H      0.0839145331     4.4987085640     4.2751362929
 F      0.1715379863     5.1015862148     4.9605191557
 H     -1.4243402615     5.5935882205     5.3797282185
 F     -2.3309578940     5.7265555555     5.3443282732
          8
Energy: -28.872717640336475 Kcal/mole
 H     -2.8916911098     5.2862783268     3.7542471550
 F     -2.8711078922     4.9040222248     2.9209731283
 H     -1.4348146943     3.9932976939     2.8399798412
 F     -0.6218011057     3.6428087808     3.0788426191
 H     -0.2737212379     4.0329163477     4.6789626925
 F     -0.3314491840     4.3769666204     5.5270109778
 H     -1.7241129282     5.3124127850     5.5736308277
 F     -2.5095683953     5.7098622974     5.3167600542
          8
Energy: -28.750104991573068 Kcal/mole
 H     -3.0514494365     4.7624413457     3.7880008544
 F     -3.0122100251     4.3026211266     2.9955902067
 H     -1.4232644718     3.7669702992     2.8394241867
 F     -0.5325280385     3.6323125014     3.0107276717
 H     -0.1412963805     4.0640178005     4.5761850671
 F     -0.2517842475     4.4513731754     5.3999794861
 H     -1.7594572651     5.1888211064     5.4803312812
 F     -2.6034746620     5.4631413301     5.2495238968
          8
Energy: -28.784166074607413 Kcal/mole
 H     -3.0494898381     4.8705147468     3.8376821095
 F     -2.9361826417     4.6375311295     2.9580406409
 H     -1.3765868072     4.0674303949     2.8823392867
 F     -0.5255024556     3.8200824600     3.1176336249
 H     -0.1773353800     4.0654635136     4.7895777938
 F     -0.3196934843     4.3035229460     5.6636206284
 H     -1.8635461497     4.8964753649     5.6929037316
 F     -2.7042730472     5.1677928869     5.4470296052
          8
Energy: -28.827482335028833 Kcal/mole
 H     -2.9919067337     5.0250754662     3.9734015935
 F     -2.9092425168     4.8132946562     3.0850297593
 H     -1.3958789089     4.0764211590     2.9376564638
 F     -0.5800001335     3.6978431466     3.1162888027
 H     -0.3312381651     3.8256291366     4.7499528144
 F     -0.4404847277     4.0053518072     5.6425075467
 H     -1.9378489458     4.7507601837     5.8091893728
 F     -2.7626051918     5.1167176105     5.6456617106
          8
Energy: -28.816524642463065 Kcal/mole
 H     -2.9989216283     4.9558212613     3.9799186279
 F     -2.9420887618     4.7155503429     3.0967827884
 H     -1.5360998668     3.8279771383     2.9960657745
 F     -0.7587570215     3.3934444332     3.2147171617
 H     -0.4348591517     3.4989747245     4.8709895899
 F     -0.5821126514     3.7222547036     5.7481164096
 H     -1.9817498686     4.6412382706     5.8138708512
 F     -2.7285323838     5.1254847522     5.5931669318
          8
Energy: -28.854832740948638 Kcal/mole
 H     -2.6900598507     5.2097857225     3.9188624784
 F     -2.6184287445     4.9527619265     3.0415388478
 H     -1.3687788374     3.8666700073     2.9157632992
 F     -0.6645698696     3.3276652153     3.1491140305
 H     -0.3944703371     3.5192499715     4.7908601521
 F     -0.4698579090     3.7353219784     5.6788458512
 H     -1.7232417336     4.8333724466     5.7723068410
 F     -2.4407563937     5.3604125008     5.5525558596
          8
Energy: -28.87113160147024 Kcal/mole
 H     -2.9215136916     5.0857386211     3.9184281841
 F     -2.9044091517     4.7812262213     3.0536342010
 H     -1.6640621555     3.6507255168     2.8383707315
 F     -0.9564733236     3.0982680944     3.0254478313
 H     -0.5460717315     3.3649205818     4.6386563798
 F     -0.5333562468     3.6773388914     5.5007016897
 H     -1.8088222645     4.7178640441     5.6800617127
 F     -2.5282130734     5.2689041102     5.5396312689
          8
Energy: -28.87723420983204 Kcal/mole
 H     -2.9372427444     5.0002086669     3.7757947943
 F     -2.8025132520     4.7923550938     2.8928826491
 H     -1.4131199555     3.8380216095     2.7368337954
 F     -0.6595373678     3.3583697708     2.9440447919
 H     -0.4030205193     3.5677118698     4.5987355656
 F     -0.5436482164     3.8187821977     5.4694114762
 H     -1.9932885960     4.6582588411     5.6354192634
 F     -2.7713908607     5.1024801409     5.4401929777
          8
Energy: -28.870411726393144 Kcal/mole
 H     -2.9373858091     5.1807031118     3.6318184920
 F     -2.9468443296     4.7707755792     2.8115996466
 H     -1.5952156440     3.7674692429     2.7326782123
 F     -0.8191922118     3.3144297416     2.9155219790
 H     -0.3311132588     3.8546962667     4.4313218971
 F     -0.3312695632     4.2909438035     5.2379054713
 H     -1.6707672879     5.2666175329     5.3260132346
 F     -2.4714359016     5.6821691322     5.1612842469
          8
Energy: -28.885618178735484 Kcal/mole
 H     -2.7423709755     5.3415379933     3.6847147860
 F     -2.7942755600     4.9385759938     2.8626341689
 H     -1.5720849367     3.8017247357     2.8336342649
 F     -0.8621181837     3.2718232779     3.0703633392
 H     -0.4389648002     3.6844880030     4.6565590832
 F     -0.4314400209     4.0821966470     5.4827916244
 H     -1.6165449684     5.2472765780     5.4669849209
 F     -2.2999484664     5.7986721733     5.2027661547
          8
Energy: -28.863188767936236 Kcal/mole
 H     -2.8430468222     5.1830728041     3.8365165924
 F     -3.0062373698     4.6651977057     3.0975556817
 H     -1.7076222594     3.6032031314     2.9593488416
 F     -0.9128164259     3.1740090193     3.1173523264
 H     -0.2214091323     3.8943954988     4.4954445599
 F     -0.0822475385     4.4176882508     5.2355038457
 H     -1.3601131329     5.5048918579     5.3227312600
 F     -2.1538264275     5.9302182540     5.1495098335
          8
Energy: -28.88447962923223 Kcal/mole
 H     -2.9779671445     4.9643475236     3.8532490302
 F     -3.0704518422     4.4619615802     3.0917085227
 H     -1.6200011615     3.6453917031     2.8992650153
 F     -0.7807375732     3.2992345108     3.0284966966
 H     -0.1342460901     4.0690651153     4.3653934329
 F     -0.0290985598     4.6055295521     5.1016263477
 H     -1.4805183814     5.3677986879     5.3432329156
 F     -2.3374143290     5.6772687105     5.2390857114
          8
Energy: -28.90059222536263 Kcal/mole
 H     -2.9353149120     4.9413935315     3.8395944371
 F     -3.0535572675     4.4082592084     3.1029292900
 H     -1.6186329803     3.5801844570     2.8489046665
 F     -0.7441218179     3.3161370716     2.9288934477
 H     -0.0357767564     4.2137389689     4.1419301204
 F      0.0970745696     4.7917227931     4.8413400317
 H     -1.3809097545     5.4917327175     5.2036281130
 F     -2.2638893279     5.7356948924     5.1621729542
          8
Energy: -28.88656900421438 Kcal/mole
 H     -3.0181826533     4.7748659373     4.0453573600
 F     -3.1324562154     4.2038390786     3.3370079550
 H     -1.6479737046     3.5886916678     2.8525220072
 F     -0.7450213209     3.4371477463     2.8015275709
 H     -0.0613160829     4.3599593498     4.0100992643
 F      0.0701765757     4.9368364823     4.7106786350
 H     -1.4272067969     5.5437806984     5.1758834589
 F     -2.3318582489     5.6817143231     5.2347822322
          8
Energy: -28.88876170377165 Kcal/mole
 H     -2.9896499087     4.9187341527     3.8723756707
 F     -3.1302451445     4.3432900048     3.1723856619
 H     -1.6120355268     3.7711095046     2.7058296508
 F     -0.7098512215     3.6152351546     2.6542964935
 H      0.0600744594     4.4709601569     3.9021642306
 F      0.1873584479     5.0145906542     4.6295937246
 H     -1.3259772526     5.5988151209     5.0685299938
 F     -2.2262704308     5.7691568083     5.1052029113
          8
Energy: -28.90920183968572 Kcal/mole
 H     -2.9615425272     4.9181039613     3.9388180844
 F     -3.0851592586     4.3730629007     3.2118117941
 H     -1.5977440093     3.8177257010     2.6712224182
 F     -0.6948346497     3.6629524845     2.6301257065
 H      0.0098720644     4.4935581283     3.8833343370
 F      0.1509996045     5.0131826598     4.6256027277
 H     -1.3340322898     5.6181255126     5.1230105720
 F     -2.2319700249     5.7989906488     5.1664228577
          8
Energy: -28.88922651434379 Kcal/mole
 H     -2.9792181638     4.9398494260     3.9386025660
 F     -3.0933076886     4.3925412205     3.2117419821
 H     -1.5891337066     3.8266156147     2.7735650348
 F     -0.6898613484     3.6522045664     2.7313866991
 H      0.0101375115     4.5024898685     3.9671383251
 F      0.1493636617     5.0381234767     4.6983029556
 H     -1.3346800808     5.6817309725     5.1549603326
 F     -2.2384126154     5.8364822302     5.1694017371
          8
Energy: -28.909631246031353 Kcal/mole
 H     -3.0281046264     4.9188394662     3.8338090864
 F     -3.1270866071     4.3187860578     3.1474946727
 H     -1.6214812251     3.6509019217     2.8544331220
 F     -0.7318743941     3.4380888403     2.9192349624
 H     -0.0613851923     4.4070214477     4.1003089463
 F      0.0564421132     5.0290301460     4.7637174971
 H     -1.4565630555     5.6879404444     5.1092988318
 F     -2.3553872890     5.8628570033     5.0602254717
          8
Energy: -28.89477216099067 Kcal/mole
 H     -3.0411983332     4.7529148088     4.0561854224
 F     -3.1681654569     4.1481507749     3.3786687711
 H     -1.6420488898     3.5612787651     2.9232030516
 F     -0.7310926569     3.4675377039     2.8756598595
 H     -0.0179492472     4.4430937265     4.0618272739
 F      0.0943216178     5.0489278160     4.7409806505
 H     -1.4247837138     5.6213831572     5.1570698760
 F     -2.3317356549     5.7535078408     5.1865697821
          8
Energy: -28.90720610168387 Kcal/mole
 H     -3.0824658074     4.7689794517     4.0595072784
 F     -3.1989894604     4.1827316238     3.3640759571
 H     -1.6895907162     3.6377414720     2.9256197007
 F     -0.7816425082     3.5126518580     2.8960961482
 H     -0.0729018315     4.4535256626     4.0630076022
 F      0.0482124307     5.0291054370     4.7665189801
 H     -1.4730212013     5.6033033954     5.2081951397
 F     -2.3795279459     5.7407136065     5.2240997251
          8
Energy: -28.906944344334306 Kcal/mole
 H     -3.0873188219     4.7271833954     4.1164758514
 F     -3.1963717098     4.1169732399     3.4407243929
 H     -1.6840950946     3.5558592621     2.9456385949
 F     -0.7768985358     3.4294931374     2.9018778112
 H     -0.0684254502     4.4128622796     4.0545969708
 F      0.0300901148     5.0071079005     4.7460127831
 H     -1.4722715267     5.5686061644     5.2062967616
 F     -2.3772339860     5.7039899397     5.2663232616
          8
Energy: -28.91247423094279 Kcal/mole
 H     -3.0771376650     4.6549832377     4.0847531614
 F     -3.1869527841     4.0397114282     3.4137313734
 H     -1.6592022072     3.4947749318     2.9964604928
 F     -0.7524616969     3.3605815080     2.9699506476
 H     -0.0538421123     4.4030864483     4.0782513830
 F      0.0646867789     5.0437158457     4.7235682641
 H     -1.4762041456     5.5663030260     5.1891728084
 F     -2.3880409143     5.6461726699     5.2445221291
          8
Energy: -28.92426744289233 Kcal/mole
 H     -3.0560611866     4.6474748283     4.1097416660
 F     -3.1625243994     4.0313723778     3.4389418786
 H     -1.6422207668     3.4717736968     2.9918096249
 F     -0.7347083106     3.3482345369     2.9465523845
 H     -0.0509610829     4.3670951876     4.0809959871
 F      0.0626217594     4.9932641071     4.7412235405
 H     -1.4620309340     5.5528057864     5.1979450963
 F     -2.3709711214     5.6620031540     5.2507908225
          8
Energy: -28.91769128063345 Kcal/mole
 H     -3.0710185791     4.6634946695     4.0721154225