          10
Energy: -37.8838290806319 Kcal/mole
 H     -2.7288481618     1.9971019858    -3.8064676220
 F     -2.9147353594     2.4354476380    -3.0227661234
 H     -1.6729634636     3.1876691211    -2.2128245890
 F     -0.8887349513     3.5293633265    -1.8824918619
 H      0.5294966277     3.0620289356    -2.6063027746
 F      1.2129115079     2.7202187603    -3.1132533694
 H      0.8329601191     1.7487608239    -4.4093283494
 F      0.4637960463     1.2420742048    -5.0785634033
 H     -1.1909029233     1.1987044826    -5.2210229180
 F     -2.1030749683     1.2676666505    -5.1571842173
