          26
Energy: -103.86864103781575 Kcal/mole
 H      2.0594535595     5.6390814788    -1.7114241149
 F      1.9395514917     6.5347359616    -1.5554897006
 H     -1.8828133455    -1.8143386936     0.2519502231
 F     -1.8286335191    -0.8991170964     0.2699217119
 H      2.0205776141     3.3687074690    -1.3878264153
 F      2.2811033828     4.0208400908    -1.9775198673
 H      0.1042205744    -0.6667162988     2.9974003093
 F     -0.1755721399    -1.2833460570     3.6157632920
 H      3.4209395245     7.1503977603     1.5470376351
 F      3.4013027222     6.5526461361     2.2421609276
 H      2.0533918831     3.1296897041     2.1030402700
 F      1.8440125598     2.4516556189     2.6838320384
 H      2.8251509571     7.5106938773    -0.5490540549
 F      3.3061199470     7.9532801381     0.0941218406
 H      1.0853837163     1.1138959017     2.0844987371
 F      0.6332505447     0.3602349766     1.8228504902
 H      0.8970703344     1.5144283278    -0.6557794855
 F      1.4871014785     2.1555844049    -0.3699978664
 H     -1.4583356784    -3.6353067902     1.2606774091
 F     -1.8166753362    -3.4468411931     0.4379001559
 H     -0.5394745318    -2.8478624317     3.1428537826
 F     -0.7526235174    -3.6544427423     2.7622165374
 H     -0.7859472139    -0.0232066287    -0.6979775703
 F     -0.2136302959     0.4323906414    -1.2509454472
 H      2.8060560991     5.1710521166     1.6259680637
 F      2.4567176730     4.4531199477     1.1749413849
