          6
Energy: -0.7195582336203876 Kcal/mole
 Ar     6.3408244873     0.2301311502     6.3137767023
 Ar     4.1864163707    -3.6563901164    -0.7627308410
 Ar     8.2366128637    -3.3952202254     1.3613916060
 Ar    -5.8658232443    -1.9109521045     5.7063899785
 Ar    -4.6835006931    -4.8241235558     2.9032418806
 Ar     7.2767355560    -2.2622587703    -1.9093681672
          6
Energy: -0.22671650049311096 Kcal/mole
 Ar    -5.8158637810     5.2320702259     4.2347747246
 Ar    -5.4300310622    -4.8910752219     5.9728197271
 Ar     1.5126596648     3.9550650881    -6.5118233937
 Ar     1.2902489004    -4.5551435257    -1.1661301995
 Ar    -6.3737277791     0.7904101024     4.6537957745
 Ar     5.2935947517     1.5420605994    -2.8538335236
          6
Energy: -0.043124993383119405 Kcal/mole
 Ar    -6.8795344574     6.0168993545    -7.5249723397
 Ar     3.4886235085     7.7276439334    -1.3336996183
 Ar     7.2472247040    -5.2402950758    -4.1034411166
 Ar    -6.7778638327    -4.9735434519    -8.2096961314
 Ar     0.9849131221    -7.5001266425    -6.0094695956
 Ar     4.8061945758     0.3874377221    -1.1478038595
          6
Energy: -0.46694059994794296 Kcal/mole
 Ar     0.0789594902     6.1117831109    -0.2289604754
 Ar    -1.1903716694    -3.6218677131    -7.0343132527
 Ar     2.2522386054    -2.1437703687    -4.7698775974
 Ar     5.2340478603     0.5525814998    -3.0672638227
 Ar    -2.4815106293     0.6020675134    -2.8724327257
 Ar     5.9688640549     3.3342726637     2.2396257496
          6
Energy: -0.887676458841263 Kcal/mole
 Ar     5.8655899571     4.2635504860     0.5009613028
 Ar    -3.8141866854     2.8107402755    -3.9069111783
 Ar    -0.2590819833    -3.3784098330    -4.4951911755
 Ar    -2.0472433782    -0.9208809020    -1.7550262754
 Ar    -5.1748638328     3.2128852549    -0.0041434633
 Ar    -0.1990497459     1.2071939352    -6.1985324865
          6
Energy: -2.4527244223697267 Kcal/mole
 Ar     2.2458342575    -4.1355086223    -0.7107663629
 Ar     3.4331560909    -1.3672078109    -2.9462717398
 Ar    -0.9092170817    -2.1098982908    -2.4278737892
 Ar     1.8916343115    -5.1249689162    -4.2589295304
 Ar     0.9060884679    -2.0063323175    -6.1061140010
 Ar     0.6897737943     1.3140980439    -3.0681360849
          6
Energy: -1.672475092871177 Kcal/mole
 Ar    -0.8732022004    -0.6118881377     0.0779865014
 Ar    -1.3938874355    -1.0823561844    -4.2746699754
 Ar    -4.9851980532    -0.3218562742    -5.3535622319
 Ar    -1.7040671317    -5.8895575395    -5.4101590959
 Ar    -1.4144484649    -1.4368202339    -8.1357090328
 Ar    -4.3706290572    -3.6570207423    -4.0702169788
          6
Energy: -2.439427990322858 Kcal/mole
 Ar    -3.5737735224     0.3268304092    -4.3433646257
 Ar    -2.0981145195    -3.2237120987    -3.7258155078
 Ar    -2.4420382253    -0.6614077251    -8.0088796616
 Ar    -5.4941082042    -2.4936611503    -6.7852812086
 Ar    -1.8548795869    -4.2057075664    -7.4438894519
 Ar    -5.9395829107     1.0748947293    -7.0686281596
          6
Energy: -2.8861841846766723 Kcal/mole
 Ar    -1.7137213678    -2.0599552668    -5.5356748544
 Ar    -3.1106090459    -5.0146817509    -3.4384516577
 Ar    -5.0235306573    -1.7207577715    -7.5307796374
 Ar    -6.6009150972    -4.3269437628    -5.1789092221
 Ar    -3.3078626976    -5.2095121224    -7.2022363351
 Ar    -4.9000387366    -1.3162091461    -3.6289999637
          6
Energy: -2.972485027826194 Kcal/mole
 Ar    -1.6517259062    -2.2185113709    -5.5437481252
 Ar    -3.2433054604    -4.7491278425    -3.2264668097
 Ar    -4.9245083130    -1.8823925599    -7.4411547458
 Ar    -6.5106439933    -4.4026196626    -5.1025890226
 Ar    -3.3296511786    -5.3114130756    -6.9823188153
 Ar    -4.8120362154    -1.3124560630    -3.6721233540
