          6
Energy: -0.047454020305184946 Kcal/mole
 Ar    -2.5657672379     3.4628272166    -5.2495482195
 Ar     2.6035913544    -2.1275382532     1.8679931832
 Ar     4.4001325352    -5.0309650990    -5.1346186734
 Ar    -2.2269146877     2.7884601666     5.1920586314
 Ar    -5.1556224556    -5.2947477574     1.8998008841
 Ar    -5.2076703912    -3.9450889798    -4.8225777455
