          6
Energy: -0.12301200910909749 Kcal/mole
 Ar     0.3362422707     3.7999717426     5.0533235534
 Ar     0.8231763954     5.0738885914    -0.6505040496
 Ar    -4.0362000068     6.1186408828    -2.6728576467
 Ar     1.0625907742    -6.4901190918     4.9985831121
 Ar    -8.0991383293    -7.9128094033    -0.3835991846
 Ar    -5.8176746740    -7.1172938583     6.0211181316
          6
Energy: -0.6580411555772043 Kcal/mole
 Ar     0.4448717574    -4.5995521754    -8.0595213160
 Ar    -3.6631959021    -4.3847744479     3.3074040243
 Ar    -3.3161442974     1.2543553089     3.2024771612
 Ar    -5.4045450942     2.1160312221    -5.8981595587
 Ar    -5.5115108449     1.0710625140    -1.9468208507
 Ar    -0.8980386921    -2.1533091053     5.1420432082
          6
Energy: -0.4268918871312208 Kcal/mole
 Ar    -0.2017038884    -5.0508619354     3.6973219963
 Ar    -1.4760408260     7.7080032517     0.1329465459
 Ar     4.6935248757    -5.5700519049     3.3458766760
 Ar     1.2612020075     8.0018479092    -3.8390215015
 Ar     4.9419049752     2.9618096606    -5.1357695684
 Ar     2.0444833662    -4.8461255139     7.6303448445
          6
Energy: -1.6079621942300333 Kcal/mole
 Ar    -7.5720350116     2.6572746787    -0.5788294591
 Ar    -6.4979626593     2.4628457292     4.3795027009
 Ar    -5.2283466573    -0.1589331894    -1.0412227615
 Ar    -2.4084449397     1.5758077468     4.9868734030
 Ar    -5.0184545586     4.1445170078     6.9616602770
 Ar    -4.1936231698     2.0457343514     1.7295877731
          6
Energy: -1.8470173012203408 Kcal/mole
 Ar    -4.1226096749     7.5782841417    -3.6868175695
 Ar    -7.0210925832     7.1796784014     1.1997139171
 Ar    -4.7751826473     5.1900974610    -0.7424617784
 Ar    -8.1715662455     3.9661830979     0.3139727034
 Ar    -7.2921282793     3.9388125508     4.1369443851
 Ar    -3.7226814405     4.3645409764     3.3013746729
          6
Energy: -2.142511693821095 Kcal/mole
 Ar    -3.8758254938     1.4641338013    -0.1502804800
 Ar    -2.2754739397     5.2444242348    -0.0971608277
 Ar    -5.2430602325     7.6194507026    -0.7701677679
 Ar    -5.6082910326     4.3267876602    -2.2422291150
 Ar    -3.4446567775     6.2109450719     4.6165064440
 Ar    -5.1785482870     4.4245364471     1.4899302283
          6
Energy: -2.1819807798318753 Kcal/mole
 Ar    -2.9165227568     7.1312933629     5.0243991243
 Ar    -7.5762651462     2.9296125583     6.3893858407
 Ar    -6.2286803945     5.9650804875     3.9007264442
 Ar    -2.7389535091     3.7696088331     7.2688892738
 Ar    -5.7037223010     6.2284744995     7.8781840565
 Ar    -4.5871225399     0.6480890982     6.7621007725
          6
Energy: -2.8002512395934165 Kcal/mole
 Ar    -4.1175817071     3.9105234897     7.4458190730
 Ar    -6.3645569511     1.2463916982     5.9124982263
 Ar    -4.9157784952     3.7876309551     3.2918461476
 Ar    -1.6168782985     2.8086703798     4.7382621756
 Ar    -2.8801447961     0.4414509710     7.4555979118
 Ar    -3.4479803195    -0.3031645445     3.8172892032
          6
Energy: -2.875071886974071 Kcal/mole
 Ar    -3.5482581314    -2.7280347809     7.4010588893
 Ar    -3.3852464660     0.7901595277     6.2166073092
 Ar    -3.1012210914    -2.0995440857     3.7158155544
 Ar    -6.6042913562    -3.1755406275     4.9907068692
 Ar    -6.8552271744    -0.3743613451     7.5841676635
 Ar    -6.0870368172     0.4893907809     3.7075941100
          6
Energy: -2.9724306526279096 Kcal/mole
 Ar    -3.6893069368    -2.9371826485     7.3459196537
 Ar    -3.1238295465     0.6879380273     6.4377760363
 Ar    -3.2616140072    -1.9800956804     3.7115452534
 Ar    -6.6764155632    -3.1003589173     4.9948453705
 Ar    -6.5251230858    -0.4351493894     7.7147833586
 Ar    -6.0871340227     0.5290041030     4.0698681013
