          6
Energy: -2.972485027826194 Kcal/mole
 Ar    -1.6517259062    -2.2185113709    -5.5437481252
 Ar    -3.2433054604    -4.7491278425    -3.2264668097
 Ar    -4.9245083130    -1.8823925599    -7.4411547458
 Ar    -6.5106439933    -4.4026196626    -5.1025890226
 Ar    -3.3296511786    -5.3114130756    -6.9823188153
 Ar    -4.8120362154    -1.3124560630    -3.6721233540
