          6
Energy: -2.9724306526279096 Kcal/mole
 Ar    -3.6893069368    -2.9371826485     7.3459196537
 Ar    -3.1238295465     0.6879380273     6.4377760363
 Ar    -3.2616140072    -1.9800956804     3.7115452534
 Ar    -6.6764155632    -3.1003589173     4.9948453705
 Ar    -6.5251230858    -0.4351493894     7.7147833586
 Ar    -6.0871340227     0.5290041030     4.0698681013
