          6
Energy: -0.2608590721914564 Kcal/mole
 Ar     0.2867050096     3.6244643365     8.0897769417
 Ar    -6.0339724817     1.8253580007     6.5874802039
 Ar    -5.5729641835    -5.3070361084     1.2669799127
 Ar    -6.9733748698    -5.7675027194    -2.1341843674
 Ar     1.8016053542    -4.6263870503     0.8563375568
 Ar     4.2810329273     3.6417026948    -1.6616343680
          6
Energy: -0.12164864791803522 Kcal/mole
 Ar     3.8533597173    -1.5219440557    -2.9052457523
 Ar    -6.7359004799    -0.4127679176     8.0967346110
 Ar    -3.0631998205     0.4318458541     5.0557422243
 Ar    -0.7544849467     4.8624208113    -7.5150339415
 Ar    -6.9054189134     4.5055409200    -4.5057353863
 Ar     7.2860120179     5.9677356349     0.7386031821
          6
Energy: -0.7433356303499442 Kcal/mole
 Ar     1.1620339702    -4.4923946083     0.8937226664
 Ar     2.4894146041     4.1299258789     3.5658988347
 Ar     3.6696675176     0.7711617814     6.7537040039
 Ar     2.6766629308    -7.0490665287     3.5629302743
 Ar    -1.1777420210     2.4262495552     6.0153771478
 Ar     4.4447857550    -3.4431555392     7.5635598052
          6
Energy: -0.12860752560233293 Kcal/mole
 Ar     3.6579612319     3.7279480308    -5.7337336414
 Ar    -5.6733436531     0.6265050843     1.6074938425
 Ar    -7.7901993784     1.7727381684     7.8060665483
 Ar     4.9689521331    -3.2904112386     5.0886125146
 Ar     2.7955631607     1.1937592443     8.0995026591
 Ar    -5.9729144584     5.8461180490     3.1760663644
          6
Energy: -0.3367742061179626 Kcal/mole
 Ar    -1.3441995512    -2.7800119134     2.6511543220
 Ar     4.4515831749    -0.5488633959     3.4791556495
 Ar     2.2801353036     1.4852319248     7.7184270908
 Ar     4.8569695079     7.9251114849    -6.1249744954
 Ar    -5.1386325304    -3.0331924558     1.5833484668
 Ar    -3.3422343446     3.1048109114    -4.4240188728
          6
Energy: -1.0038413227741365 Kcal/mole
 Ar    -1.7816828132    -4.0007525019     0.4328048920
 Ar    -3.3876511310    -0.7774231498     0.9158788319
 Ar     1.9659820192    -0.9805839234     3.0734520137
 Ar     1.4797430161    -3.1908466038    -0.2352241449
 Ar    -1.5085635373    -6.4934094339     2.8512400707
 Ar    -1.3356708428    -3.6727177513     6.6596362202
          6
Energy: -2.234318702417181 Kcal/mole
 Ar     3.6999463540    -3.1312637270     1.0269174979
 Ar     0.1462380964    -4.2866156988     2.5837636326
 Ar     0.8889935011    -7.2035537572     4.4153499543
 Ar     3.6260753454    -5.1248729110     3.9969596891
 Ar     0.7220862476    -7.6173642136     0.7527656445
 Ar     4.5544630236    -6.5772951120     0.5953193731
          6
Energy: -2.5915042435912046 Kcal/mole
 Ar     1.8954049713    -8.2335345953    -2.1314759821
 Ar     5.1331841810    -7.2281622398    -0.1742089571
 Ar     4.0396636081    -4.0001525691     0.7475326147
 Ar     0.3865007884    -5.1067559502    -0.5476623577
 Ar     2.1746017512    -7.3617077484     1.9750700405
 Ar     3.2844569129    -4.5901960282    -3.2918507545
          6
Energy: -2.8631966808123295 Kcal/mole
 Ar     5.8374810601    -5.9299945586    -2.6704352320
 Ar     6.6411415045    -3.1666734415    -0.0628058462
 Ar     4.6099581064    -4.6354324228     2.5889320797
 Ar     3.4389889225    -7.1406371230     0.0154495851
 Ar     7.0555286472    -6.7443072076     0.8620409770
 Ar     3.1264735776    -3.5164549859    -1.1772795085
          6
Energy: -2.972454936434633 Kcal/mole
 Ar     5.8840630588    -5.7741188098    -2.5895565121
 Ar     6.8143784076    -3.0450127732    -0.1486001569
 Ar     4.3979116637    -4.5140111252     2.3996106525
 Ar     3.4662428016    -7.2499344777    -0.0598546465
 Ar     7.1187571588    -6.6987563968     0.8841714306
 Ar     3.1597765365    -3.5787821521    -1.0621954291
