          28
Energy: -102.92100110455438 Kcal/mole
 H      1.7913195874    -2.2056721975     1.3957486580
 F      2.5875989744    -2.5288729073     1.0757964131
 H      3.6527612249    -0.3097081661    -1.7600950834
 F      2.9346989893    -0.3437022019    -2.3294104892
 H      2.8799426139     5.3848911694     2.0359196237
 F      3.3076951160     5.5032165503     2.8383633296
 H      1.9624640396    -0.1059614186    -3.8379897529
 F      1.1958117561     0.1983736803    -4.2386310186
 H      0.5336297021    -0.5905744646     2.3454946453
 F      0.4060927484    -1.4566395818     2.0724478758
 H      0.3595545416     2.2177174580     0.6096967123
 F      0.2009120500     3.0852927006     0.8607639510
 H      4.9944525559    -0.4648563417     0.2058845488
 F      4.8679980098    -0.1442559178    -0.6438881360
 H      0.2950989664     0.8677564585    -0.8452529340
 F      0.6737096549     0.7923729552    -0.0134715480
 H      4.1126232912    -1.8382850191     1.4713562488
 F      4.8592626446    -1.3248419614     1.6120506072
 H      3.3567876441     2.0181965570     4.6526153101
 F      2.8527834858     1.3208659627     4.9697885289
 H      1.0959406051     4.6727710737     0.5486650658
 F      1.7540283881     5.2857331881     0.7277932772
 H      0.1939892626     0.9473200969    -3.1055466416
 F     -0.3380172794     1.2951552769    -2.4445861839
 H      2.0654872893     0.9627849971     3.6624920601
 F      1.6499661138     0.9534797522     2.8450909559
 H      3.8892741002     4.1541818318     3.7301519385
 F      4.0519130344     3.2660719736     3.8904593211
          28
Energy: -105.30505412152324 Kcal/mole
 H      3.8536412916    -4.4037687493     1.9077807984
 F      4.5620566237    -4.8912246897     1.5893103548
 H      3.4204462649    -2.0372431616    -1.3740994805
 F      2.6727976033    -2.5320619039    -1.5666219232
 H      1.9467908758     4.1961089378     2.0642400933
 F      1.2930190039     4.0192362219     2.6824531487
 H      1.6238949768    -1.3079504588    -2.3247166946
 F      1.0853174387    -0.6045965727    -2.5616060070
 H      2.4138986913    -2.4450390484     1.8162335135
 F      2.6401331582    -3.2549021794     2.1820595308
 H      2.0008963070     1.6099423546     0.3942331234
 F      2.8478221123     1.8402661203     0.1286081184
 H      5.3952831099    -1.8146925665    -0.6912389451
 F      4.8761951899    -1.2385926481    -1.1806729195
 H     -0.0282067299     1.0193763307     0.4957025130
 F      0.5032909039     1.4893666258     1.0766572340
 H      5.4481099036    -3.9275768550     0.6012037816
 F      5.8961378482    -3.1912190216     0.2882547410
 H      1.0328286753     0.7288198017     4.0828499731
 F      1.5646665943     0.0599217115     3.7502649871
 H      3.1804135278     3.3265679882     0.6918791468
 F      3.2072497725     4.1733432993     1.0427927952
 H     -0.0157291353    -0.1723140775    -1.4121398793
 F     -0.6608605119     0.0743849128    -0.8089532455
 H      1.5147924261    -0.4777498313     2.0973616457
 F      1.7236777262    -0.9918894602     1.3673504311
 H      0.5913561375     2.8803869887     3.9716769114
 F      0.3609747534     2.1819436718     4.5193906605
          28
Energy: -103.84686701552089 Kcal/mole
 H      2.9750299128    -4.3081184078    -0.0201093003
 F      3.5084347249    -4.3869656418    -0.7618312294
 H      5.2987491316    -3.6199686581    -3.6755718926
 F      5.0898800560    -2.7689074253    -3.4054654558
 H      0.6702744274     3.4380953750     2.7427266187
 F     -0.1210466770     3.1353625825     3.0935153956
 H      3.5224626951    -2.3628592022    -3.0185838407
 F      2.6535820514    -2.2392776516    -2.7527586587
 H      1.9881336707    -4.1278524073     2.0555319727
 F      2.2395926853    -4.7310731029     1.4122729608
 H      3.5209028450     1.2005730925     1.9992300084
 F      3.8457811425     1.8610729465     2.5461148543
 H      5.2172130033    -5.8742290699    -3.2207036529
 F      5.5581689631    -5.2944306589    -3.8439787414
 H      2.2058702159    -0.5350078616     0.7685908581
 F      2.6102738325     0.1492392970     1.2259228391
 H      3.8600856683    -5.9816520400    -1.4005294540
 F      4.2716629882    -6.5978530741    -1.9407047915
 H     -0.3550178883    -0.3020762350     2.9377513456
 F     -0.2289685885    -0.9531151454     2.3043881709
 H      2.7063893810     3.1751656575     2.6240405138
 F      2.1228156163     3.8595950732     2.4454710986
 H      2.0488956826    -2.3211940479    -1.0058166218
 F      1.8798298382    -2.0922055060    -0.1341114033
 H      0.9097932771    -2.2531399519     2.7111132063
 F      1.3881086913    -2.9379406151     3.0894667662
 H     -0.7897155523     1.6314916390     3.7731042269
 F     -0.8243926945     0.7644029755     4.0694886824
          28
Energy: -100.97569526577487 Kcal/mole
 H      2.2411488568    -6.7172849645     2.2547322430
 F      2.5454573431    -7.3277903165     1.6418957556
 H      3.9938630984    -5.3549158675    -2.3154568642
 F      4.2302722897    -4.6780804717    -1.7437108180
 H      0.4653893656     2.7305626627     4.3766652340
 F     -0.2392799840     2.1525759556     4.4779641683
 H      3.2122520748    -3.7213108244    -0.9496845176
 F      2.5745009408    -3.2419032661    -0.4976547794
 H      1.9894922280    -5.0563236308     3.5325378011
 F      1.3806077041    -5.6311570024     3.1587527941
 H      3.2931587547     1.2313578066     2.1483998089
 F      3.0290243416     2.1042815382     2.0528688153
 H      2.9961891323    -7.2548690685    -2.4216992801
 F      3.5443968729    -6.7542571754    -2.9599789524
 H      4.0385879812    -0.4457727731     0.8675833189
 F      4.1583512641    -0.3019122680     1.7652747532
 H      2.2306450342    -7.6979486989    -0.0158869822
 F      2.0221862367    -7.7072650039    -0.9088299458
 H      1.0916576374    -1.0087399691     2.8849150701
 F      1.4822153670    -1.6972603810     3.3478333157
 H      2.3218227522     3.1336700832     3.1924250376
 F      1.7180093092     3.5838152804     3.7155575519
 H      3.1533757860    -1.7977788579    -0.4296436169
 F      3.6664696471    -1.0438242653    -0.5254359026
 H      2.3882888440    -3.0478908002     4.1890423221
 F      2.8595894170    -3.8345064345     4.1882588591
 H      0.0251200438     1.1686929039     3.3059518304
 F      0.2980904657     0.5880842427     2.6507650392
          28
Energy: -102.24934349722506 Kcal/mole
 H      2.0022736944    -4.8900245279     0.3122501079
 F      2.4359834482    -5.6955732278     0.3745087744
 H      6.1456536778    -6.2662991684     0.2967606787
 F      6.2235931543    -5.7578783935     1.0559199200
 H      1.8665481604     3.2468380318     2.3665587766
 F      1.9241099599     3.1331162449     3.2746573364
 H      5.3111744350    -4.3147990266     1.1052367289
 F      4.8227163177    -3.5872123745     0.8352083389
 H      1.0228601776    -2.8703796201     1.0415370397
 F      1.1953101494    -3.3676035027     0.2905920232
 H      4.7462633403     1.9277263200     0.8810336628
 F      4.6241949163     2.7127122824     0.4230103680
 H      4.7544646554    -7.5697905253    -0.9858651040
 F      5.5990058640    -7.2145109933    -0.9482406300
 H      4.9562761275    -0.2363586660     1.1668665149
 F      4.7761290207     0.4854668454     1.7029672060
 H      2.7916331264    -7.0905975626    -0.5522401674
 F      3.0609337693    -7.8535899828    -0.9837592637
 H      0.6536404979    -0.3128665328     4.5062554515
 F      1.1640368492    -0.9952915936     4.8449006951
 H      3.0638642197     3.1937952531     0.6055414855
 F      2.1851583061     3.4123309493     0.7504796339
 H      5.2212589178    -2.0265290113     0.0130007974
 F      5.5230049560    -1.2056139923    -0.2625656375
 H      1.4414206383    -1.8488664182     3.4486092253
 F      1.3885699531    -2.2928464281     2.6479984860
 H      0.6258090248     1.8843116010     3.9256061562
 F      0.0760630433     1.1512821975     3.8890514097
          28
Energy: -103.31785273062133 Kcal/mole
 H      0.4248905707    -3.0474990023     1.0768851278
 F     -0.1087700490    -3.6996935748     0.7153086040
 H      4.6686187469    -5.5753041436     0.6855762387
 F      5.1267107375    -5.6317458938     1.4779492929
 H      1.7756069078     4.8533833506     0.9206818614
 F      0.8895820680     5.0367870695     1.0697189680
 H      6.0298094028    -4.2318254341     1.6912036228
 F      6.4244561412    -3.4322975013     1.9054418933
 H      1.6950432636    -1.1707555743     1.3695454144
 F      1.7058344105    -2.0746123206     1.5238682362
 H      5.0255062519     1.9727082908    -0.1509469326
 F      5.1009333984     2.8829980275    -0.0698769574
 H      2.8751062366    -5.5343244868    -0.7884596143
 F      3.7858853788    -5.4293059350    -0.8069381937
 H      4.6226748699    -0.3139835974     0.1493843658
 F      4.7082458174     0.3291048539    -0.4986926796
 H      0.8081999773    -4.7682208630    -0.2293888476
 F      1.2272494576    -5.4368219140    -0.6965710044
 H     -0.9221070971     2.2939927937     1.9725340165
 F     -0.5299624177     1.5537313484     2.3455280419
 H      4.0337631165     3.8728762131     0.5893635629
 F      3.5284566258     4.5987409128     0.8315923560
 H      5.4107843846    -2.1486958684     1.6146561677
 F      4.7474030372    -1.6105243548     1.2812111052
 H      0.9734716155     0.9487485305     1.5858666120
 F      1.6502173377     0.4601423006     1.2061717614
 H     -0.8424066482     4.6203754779     1.4777885516
 F     -1.4486931856     3.9512354944     1.6376551117
          28
Energy: -104.00672829038966 Kcal/mole
 H     -0.1527199124    -3.1440927737     2.2288077998
 F     -0.3133312376    -4.0461785434     2.2653354101
 H      4.5590576062    -4.7666207373     1.7232474143
 F      5.2804514191    -4.4371226238     2.1835852901
 H      1.6533740606     5.6529570922     1.3486583028
 F      1.3010788260     6.4066818310     1.7342436835
 H      5.5725890322    -2.8600310302     2.2747921526
 F      5.5347231953    -1.9448190229     2.3177125445
 H     -0.4837644882    -0.8720545087     2.6844887736
 F     -0.0990545506    -1.4547501026     2.0900536562
 H      1.5497686042     1.3807717961     1.2263176131
 F      1.5061567595     1.6798045349     0.3605425683
 H      2.0889632949    -5.5960378055     0.9792472470
 F      2.8647879689    -5.2530768133     1.3276189351
 H      2.1437900495     0.0041853268     2.8399941455
 F      1.6077092452     0.7412680894     2.7389230204
 H      0.2054728354    -5.1548040642     1.1544791512
 F      0.5536594535    -5.7486179390     0.5486407560
 H     -0.5172258116     3.8054696051     3.3117576365
 F     -0.7448551790     3.0584452771     2.8311033694
 H      2.0068052843     3.3664932305     0.4617622467
 F      2.2284662884     4.1974814902     0.7799035855
 H      4.0895900651    -1.5193694012     2.7423215631
 F      3.2274192781    -1.2498183388     2.9000959550
 H     -1.4162725182     1.3332329538     3.3769192411
 F     -1.4120124293     0.4232223671     3.4898421518
 H      0.4856101096     5.8062766374     2.9241751673
 F      0.0864686600     5.4152045504     3.6512499406
          28
Energy: -103.78192812157161 Kcal/mole
 H      1.3042135159    -0.6546038433     1.7154848317
 F      1.3869894530    -0.8801013768     0.8305057321
 H      6.2517534167    -2.1861434657    -0.9543375882
 F      6.9674446205    -1.8276112035    -0.5069789873
 H      0.5854956895     5.2815904836     0.9018860923
 F     -0.1583799155     5.7514441500     0.6434763086
 H      6.3434133152    -1.0677085360     0.8235597913
 F      5.8139788590    -0.8412178193     1.5372054399
 H      0.3511319026     0.2113918418     3.6575278238
 F      1.0120203865    -0.3048794995     3.2866109679
 H      3.3689027581     3.4463516868     4.0150240048
 F      3.1573532277     4.3319745328     3.9063595175
 H      4.0595429004    -2.6062565064    -0.7658778265
 F      4.6466841936    -2.6413913736    -1.4693830808
 H      3.7404713569     1.4343460968     2.8090988853
 F      3.6581974729     1.7864009429     3.6518191196
 H      2.6865125252    -1.9021974509     0.6970328959
 F      3.3361667791    -2.5463295369     0.7597402010
 H     -2.3609023094     3.5994210988     2.8524511362
 F     -2.4093326368     2.8018363193     3.3023422595
 H      2.2499238524     4.5989945677     2.5798275289
 F      1.9564223141     4.6155016237     1.7112232668
 H      4.5678459155     0.1574899563     1.3559513989
 F      3.9351264716     0.8209975925     1.3736353467
 H     -1.3180868688     1.6620034684     4.2517614619
 F     -0.6367164678     1.0934989629     4.4829021201
 H     -1.5146020901     5.4569632753     1.5328603868
 F     -2.1510548725     5.0712385630     2.0686152767
          28
Energy: -105.01915182704116 Kcal/mole
 H      0.8303211729    -1.4379599626     2.6101190736
 F      1.2330834341    -2.2488529573     2.4647777094
 H      5.0805537942    -2.6028524698    -0.0999986378
 F      5.4337230913    -1.8174870988     0.2152182426
 H      0.3738149631     6.9758573405     1.0950378159
 F     -0.1120389845     7.7505196104     1.1638368653
 H      5.5960902983    -1.2386512518     1.8216232407
 F      5.8099283881    -0.8154210093     2.6065043993
 H     -0.1234436126     0.9897234825     2.8057702882
 F      0.0779435779     0.1029516325     2.6875844784
 H      2.5778363806     3.0346842923     2.6460286863
 F      2.3734579390     3.5934079261     1.9482132711
 H      3.8425349440    -3.9149412757     0.8535875184
 F      4.1143867306    -3.9236440778    -0.0221463838
 H      2.9804646534     1.1208140076     3.9948852629
 F      2.6891935907     1.9901158682     3.9757948708
 H      2.8560781120    -2.8271170576     2.5534650852
 F      3.6409346791    -3.2948620572     2.4753383658
 H     -2.2322863478     4.8478874592     2.0919712065
 F     -2.3810301303     3.9430345593     2.0896224378
 H      0.9794821344     4.5972473858     1.6612632464
 F      0.3730602733     5.2408061718     1.4184184084
 H      4.3190287812    -0.8156949263     3.6709883857
 F      3.4481094168    -0.5834248422     3.8396272566
 H     -1.0798911760     2.9960285989     2.6459895276
 F     -0.3518872707     2.5465827523     2.9759861107
 H     -1.5220667486     7.0893271997     1.7507540936
 F     -2.1871834741     6.5505068972     2.0796635384
          28
Energy: -105.76998902093358 Kcal/mole
 H      1.0532090973    -0.0478278980     3.1369784924
 F      1.2591372281    -0.8279985648     3.5726576584
 H      6.3150018731    -1.9981296860     1.9244578110
 F      6.8173604654    -1.2321885031     1.8813422783
 H      0.1274482709     7.5486615268     0.5705183612
 F     -0.6654422442     7.8958793271     0.8732615364
 H      6.5171713424     0.2694492236     2.5704628190
 F      6.0468962509     0.9205026570     3.0130232841
 H     -0.3261465356     1.7695770282     2.7332658078
 F      0.5268643393     1.4536830366     2.6171949965
 H      1.6110759392     3.9184282793     2.3022249320
 F      1.0359099385     4.4374334569     1.8116062438
 H      4.6503167971    -2.7238846747     2.8891921720
 F      5.2057457584    -3.0898445843     2.2579544881
 H      3.1664289035     2.3680462266     2.9769499665
 F      2.9803586744     3.2569342475     3.1040127703
 H      2.9217875658    -1.3390578473     3.8506726360
 F      3.7243271322    -1.7710220264     3.9517972740
 H     -2.4160264147     5.2340961910     3.4790813481
 F     -2.5266553572     4.5511413972     4.0809309861
 H      1.5066480489     5.9157418228     1.2423145159
 F      1.8192171746     6.6715948022     0.8277354339
 H      4.4456450971     0.7372689690     2.7669287442
 F      3.5532423147     0.8266567899     2.5758369038
 H     -1.9970932452     3.1067277717     3.5998483388
 F     -1.8794650782     2.2704095922     3.2426026014
 H     -1.7776663515     6.9805867611     1.7270034058
 F     -2.1836549762     6.3404811913     2.2430722927
          28
Energy: -103.05388258823628 Kcal/mole
 H      2.5355772021    -0.7279319494     3.1333492657
 F      3.3466539786    -1.1369291873     3.0077916213
 H      4.7490380628    -4.3486391263    -0.1726982687
 F      4.8609767565    -3.7792806325    -0.8827613887
 H     -1.5334459418     7.0616707552     1.6529294878
 F     -1.8934118460     7.7929356679     2.0731260790
 H      4.2041035393    -2.5608564283    -1.7959260572
 F      3.7337590580    -1.8320412534    -2.0934046441
 H      1.0314367951     1.0944566244     3.7765271673
 F      1.2767678250     0.3395574448     3.3173660686
 H      1.2487406791     3.0342805282     0.4945721282
 F      1.1170184191     3.8498123066     0.8926250954
 H      4.4176315049    -4.6848759746     1.9219664572
 F      4.4555558645    -5.1923396972     1.1591222312
 H      1.7947571595     0.8531749195    -0.1706561794
 F      1.5461533799     1.7021131540    -0.4122944107
 H      4.2894327050    -2.4872968234     2.8898093674
 F      4.7138499459    -3.2995064125     2.9225902925
 H     -2.1514397985     5.1756605482     3.8334138025
 F     -1.3923125455     4.6619025781     3.8592510202
 H     -0.0156728509     5.0829523310     0.8941849707
 F     -0.6893828348     5.6989822527     0.9808509562
 H      3.0120538489    -1.0906766850    -0.8010376609
 F      2.5533299798    -0.7461363263    -0.0856682786
 H     -0.1404176179     3.4091182917     4.1177840937
 F      0.5072766035     2.7865073748     4.3014600088
 H     -3.1358918280     6.8795210444     2.8872561261
 F     -3.4106380241     6.2191413291     3.4611046769
          28
Energy: -106.08509176035135 Kcal/mole
 H      1.7443088382     0.7221809610     2.8080911807
 F      2.4640015219     0.2060624479     3.0459001828
 H      5.7133495091    -1.9871667696    -1.0679945303
 F      5.4118057302    -1.9677859559    -1.9337801467
 H     -2.7533800087     3.9718559316     1.5306092917
 F     -3.6637453766     3.9200955990     1.6277934716
 H      3.7464527395    -1.5444339917    -2.2788782945
 F      2.8666188335    -1.2977412710    -2.3558458162
 H      0.1752012445     2.1354375640     2.7562943459
 F      0.4532981246     1.5475694537     2.1097943767
 H      1.0545303595     3.1741228554    -0.5079098274
 F      0.2926594734     3.6800786083    -0.5746221131
 H      5.3664801665    -1.0261799656     0.7943257215
 F      5.9316754791    -1.6967673504     0.5264529571
 H      2.4089787054     1.3303535958    -0.2398246125
 F      2.4178656830     2.2382748705    -0.1114151869
 H      3.6835756480     0.2175497201     1.8452544710
 F      4.3783871069     0.2545741940     1.2479645707
 H     -3.3079511568     2.9886792237     5.1357046916
 F     -2.5087503628     2.8060457297     5.5465721856
 H     -0.5601355702     4.0660794048     0.7537321042
 F     -1.0655889963     4.0263695067     1.5178191137
 H      2.3042007200    -0.6906088390    -1.0111616710
 F      2.1007839866    -0.2761911461    -0.2188431692
 H     -0.8980774557     2.9609524405     4.7893897858
 F     -0.2681667958     2.9382667832     4.1233665718
 H     -4.2142167828     3.6617380847     3.0908534727
 F     -4.5290439583     3.4318167410     3.9208589096
          28
Energy: -106.64083232728244 Kcal/mole
 H      2.7701482844     2.5813066176     3.2111645258
 F      3.3965530972     2.2447883575     2.6321468480
 H      7.4501135346     2.4686251860    -0.3787365161
 F      7.5529634562     2.2318281156    -1.2586444892
 H     -2.2292853269     6.0112448398     2.2486556269
 F     -3.0676482991     6.2076043137     2.5640593109
 H      6.5298316684     1.1008469942    -1.6550761504
 F      5.9326859709     0.4057372871    -1.6214828317
 H      0.9007092501     3.3143596086     4.4186802089
 F      1.7905439341     3.0946352627     4.4470429827
 H      1.6763986941     3.4596053427     0.9691438719
 F      1.3492986148     3.9639973608     1.6615911479
 H      6.8278973316     2.9236039815     1.8835328603
 F      7.2507779070     3.1656397974     1.1066933126
 H      3.0263953872     1.9298685608    -0.1078664411
 F      2.2994143591     2.4757036517    -0.2280814078
 H      5.0285123005     2.3981305991     2.9467696594
 F      5.9111313474     2.5109137637     3.1684734616
 H     -3.0687314593     4.5598729275     5.5216961454
 F     -2.3115623292     4.4003623092     6.0137736505
 H     -0.1086435559     5.1990879754     1.7535244156
 F     -0.7979800609     5.7833480502     1.5974976620
 H      4.6739445898     0.5827615804    -0.4495385441
 F      4.1994721789     0.8786467485     0.2772467739
 H     -1.2666202375     4.1676499883     4.8785251114
 F     -0.6910076197     3.9207408779     4.2087527580
 H     -3.9059460694     5.5051513161     3.7969088077
 F     -4.2811295154     4.9872715572     4.4541202936
          28
Energy: -105.16143221276467 Kcal/mole
 H      3.4831266514     4.8016069769     3.0803287789
 F      4.1249900963     4.1468641568     3.0657631471
 H      6.9696674613     0.6456494177     0.7552215068
 F      7.4037156346     1.0460831807     0.0536917607
 H     -2.8337533675     5.8386405228     2.6179051993
 F     -3.2837456164     6.1268973814     3.3630923968
 H      6.2668024096     1.4864454467    -1.2292022954
 F      5.5636747972     1.9389555441    -1.6056796153
 H      2.2943819473     6.0150429236     4.7263158971
 F      2.2888839164     5.9691126352     3.8104833905
 H      1.0018102772     4.3931288234     0.7441745539
 F      0.1397297970     4.1120520237     0.8809300961
 H      5.8733098157     0.8895123475     2.4196132680
 F      5.8990459435     0.1114017384     1.9350820184
 H      3.0386375226     4.1300156851     0.6011395750
 F      2.5080793788     4.8739476356     0.6783555640
 H      5.4474689852     2.9655245428     3.1125284879
 F      6.0990938809     2.3248444824     3.1887062774
 H     -0.6639217873     6.8123002154     6.3838242389
 F     -0.1342933078     6.7208457454     7.1268038845
 H     -1.1849543222     4.9949561601     1.1326791934
 F     -1.9669609329     5.4425481311     1.3030202872
 H      4.6557005819     2.6352414337    -0.4221152209
 F      4.1714910954     2.9991779397     0.2663471186
 H      1.3755164539     6.2242950498     6.7771424224
 F      2.1411838764     5.9285766043     6.3682500170
 H     -2.4141253141     6.7296283885     4.6671182683
 F     -1.6826829388     7.0311995288     5.1307300660
          28
Energy: -105.11709618297606 Kcal/mole
 H      3.2848351687     2.9773308625     3.8056723166
 F      3.6610641496     2.1678516810     4.0156347148
 H      6.9281929592     0.4146094791     1.0415475361
 F      6.4795971665     0.2354777529     0.2620844906
 H     -4.4090578605     5.6504468966     1.8075806328
 F     -5.1549007697     5.6691274272     2.3407395140
 H      5.5331353383     1.6143115472    -0.3486508300
 F      4.9328877083     2.2510276614    -0.6228485189
 H      1.3868360560     4.4742746051     4.0408837515
 F      2.0080371700     4.1060668885     3.4757101026
 H     -0.0039247374     4.8032214579     1.7040427630
 F     -0.7031735093     4.9627976784     2.2754231835
 H      7.1872661268     1.0920277027     3.0806138494
 F      7.6587361585     0.9220259094     2.3126917183
 H      1.5013311567     4.0889951443    -0.0252227099
 F      0.8623363559     4.6897765034     0.2424270670
 H      5.2501589166     1.8670880406     4.1555328471
 F      6.1465018803     1.6935583043     4.2412400345
 H     -3.0621527450     5.6433549985     5.0368215891
 F     -2.2225918693     6.0016002486     4.9491467537
 H     -2.1007724834     5.4293805558     1.6537039087
 F     -2.8527808136     5.7664018026     1.2514736878
 H      3.3577775594     2.5249501795    -0.4850440436
 F      2.4667845489     2.7030890025    -0.3614033746
 H     -0.6216803091     5.2143780754     4.9774215028
 F      0.2258145116     4.9349341287     5.1884963935
 H     -4.9729187794     5.6971840228     4.0389067445
 F     -4.7124103973     5.4183738803     4.8727468294
          28
Energy: -105.66347086996663 Kcal/mole
 H      1.4889517110     2.3855344343     1.9454013316
 F      1.8924914345     1.8857475061     1.2909873052
 H      7.1420388799     1.2849296218    -0.2959209799
 F      7.1888553916     0.5344537868    -0.8207859485
 H     -3.9656439251     4.0853197738     2.0068558740
 F     -4.6005199101     4.6640225708     2.3276744463
 H      5.7148846624     0.4745859200    -1.5155387587
 F      4.9561263145     0.5386667539    -2.0264873044
 H      0.2447931706     3.4683774931     3.5997759376
 F      0.9814648354     3.4505227020     3.0539874577
 H     -0.3977776640     0.8813671940     0.5880135680
 F     -0.9150384635     1.2139411218     1.2682523849
 H      6.0606808967     2.5913226914     0.8592191830
 F      6.9444268702     2.6717747280     0.6281141763
 H      1.1395760593     6.447108E-40    -0.6675809146
 F      0.2529495416     0.1901256723    -0.8049831832
 H      3.5175862429     1.8734653157     0.9614748941
 F      4.4111872208     1.9277198651     0.7629232981
 H     -2.8641405477     5.5270432963     5.2622790694
 F     -2.4126207094     5.0648541111     5.9129710032
 H     -2.0958257337     2.4390803064     1.3796385576
 F     -2.6393115043     3.1768736558     1.3453866846
 H      3.4756855649    -0.0820158500    -1.3186203522
 F      2.7272224679    -0.3175762702    -0.8440644748
 H     -1.4664958228     3.8693586923     5.0767676855
 F     -1.0152286907     3.3264336045     4.4915503545
 H     -4.0558282093     5.7912123408     3.4347479763
 F     -3.7007048855     6.2457594539     4.1476037450
          28
Energy: -105.80689406380202 Kcal/mole
 H      1.6282605234     1.4023119869     3.0536649656
 F      2.4657950307     1.4249433031     2.6809549275
 H      7.1503852907     2.3030833801    -0.3759425329
 F      7.1119167919     2.3974215428    -1.2872654645
 H     -4.4928291937     3.2577493243     2.1588782430
 F     -5.2777790135     3.7098471656     2.0162236873
 H      5.8158193048     2.6415819348    -2.0852833038
 F      5.0436182035     2.8859737922    -2.5152450221
 H     -0.1250934019     2.6375199837     4.3057231061
 F      0.2526312372     1.8308438937     4.0878084835
 H     -0.3450333598     2.1630976536     0.3620939344
 F     -0.8165014509     1.9588261587     1.1216200996
 H      6.0943166471     2.3247060779     1.5053099433
 F      6.9115280903     2.0653940948     1.1800227587
 H      1.5532016941     2.0535320503    -1.0057966361
 F      0.6703426596     2.3007611106    -1.0238719473
 H      3.8831911646     2.4501890534     2.5137779710
 F      4.6103513880     2.9433082779     2.2511747724
 H     -3.8397553528     5.2635184623     4.5849478034
 F     -3.3457889846     4.7474087891     5.1598539108
 H     -2.2725988837     2.3752469208     1.9279349743
 F     -2.9641202257     2.6646803959     2.4560594834
 H      3.8182621128     2.1854949200    -1.5994790545
 F      3.2643803468     1.6819564560    -1.0698065098
 H     -1.7131696806     4.3182167302     4.7424787580
 F     -0.8371413616     4.1738874310     4.5130611527
 H     -5.1221075092     5.2156245903     2.8636787334
 F     -4.9671438585     5.8721323902     3.4848653202
          28
Energy: -105.92876837132474 Kcal/mole
 H      0.3679602499     1.7245546587     1.6261450419
 F      0.9168157434     1.4644223338     0.9391386221
 H      5.8190602881     0.9628638470    -0.7248373494
 F      6.3372620235     1.5741252909    -1.1706124144
 H     -4.6367447506     4.8213683993     0.9996954007
 F     -5.2135397476     5.1425785710     1.6361076546
 H      5.4036238818     2.7320267315    -1.9278367406
 F      4.7983087871     3.3571111184    -2.2172363695
 H     -1.0874448266     3.0774342359     2.9925159874
 F     -0.6708529844     2.2677727745     2.8839408752
 H     -0.5682353091     3.7824617334    -0.6289599413
 F     -0.8303459999     4.1477410792     0.1702634225
 H      4.3992480406    -0.0221983614     0.9504081106
 F      5.0332449327    -0.1001256158     0.2924838872
 H      0.9963003340     2.8899828233    -2.0459011797
 F      0.1143211307     3.1165663895    -1.9379124186
 H      2.3076438236     0.5319101567     1.5696327319
 F      2.9592684498     0.0373885406     1.9840271306
 H     -3.3795055269     6.6169392563     4.2208135554
 F     -2.6542075575     6.2855757356     4.6736160209
 H     -2.5172731324     4.2383180490     0.1537229234
 F     -3.4202776045     4.2687489989    -0.0029483273
 H      3.3553200187     2.5966826673    -2.1369755818
 F      2.5798610400     2.1081836177    -2.1066267615
 H     -2.1954047099     5.2433375722     3.4990756101
 F     -2.1361827631     4.4875280838     2.9831940557
 H     -4.7074483354     6.5298084952     2.3656532171
 F     -4.3207370574     7.1327612858     2.9381838450
          28
Energy: -105.66796715284806 Kcal/mole
 H      0.4266383360     2.0949764671     1.9738015058
 F      0.6101977903     1.7865184845     1.1299717838
 H      4.6366637181     0.7075183790    -2.0061653852
 F      4.4318813855     0.2484096261    -2.7730893380
 H     -5.6068129559     4.2053230717     1.2322080795
 F     -6.0950620220     4.5090387286     1.9465319901
 H      2.9581749271     0.5080840453    -3.7417075706
 F      2.1370523395     0.7223274588    -4.0891934782
 H     -0.7741827212     3.4225430194     3.1666181592
 F     -0.2001023079     2.7294448305     3.3425032911
 H     -1.6036380021     2.4840039676     0.2114215846
 F     -2.3146625876     2.3663366199     0.7784202038
 H      4.4164263072     2.0555681459    -0.1086901005
 F      5.0496630617     1.5942836151    -0.5852578232
 H     -0.0489529332     2.1577508112    -1.6060628154
 F     -0.7675270990     2.6790925775    -1.3764045236
 H      2.1528500806     2.3491464411     0.5538072460
 F      2.9570417367     2.7887760871     0.5239650819
 H     -3.4199222698     5.7843091932     4.7701559980
 F     -2.5692522040     5.9049095524     5.0906321945
 H     -3.7087329695     3.2317073943     0.4658377655
 F     -4.4363462630     3.7234255135     0.2018658230
 H      1.4526328450     1.0069599353    -2.7204229204