          6
Energy: -5.502965711076067 Kcal/mole
 Xe     2.8276438951    -3.6553635415    -3.5564247565
 Xe     5.5068207977    -7.0018549524    -2.5543444827
 Xe     5.6764164583    -2.3173793725    -6.6560432439
 Xe     8.3324073284    -5.6589668358    -5.6542582709
 Xe     7.0235203545    -2.8802985020    -2.5247081683
 Xe     4.1277132414    -6.4197828713    -6.7047660941
