          6
Energy: -5.325336653990896 Kcal/mole
 Xe    -1.6918633687     4.6810175629     4.5477754905
 Xe    -2.3968610803     5.9585387490     8.7375315947
 Xe     1.5693781407     6.4890296939     6.8944550136
 Xe    -5.6396192291     6.1416325371     5.7841231117
 Xe    -4.2043485257     2.2239116796     7.1877396896
 Xe     0.1111409749     2.4331560449     7.8896757645
