          4
Energy: -0.41396344969419446 Kcal/mole
 Ne    -2.3395897934     1.9542534403    -3.1310970474
 Ne    -2.9338283221     3.2097073618    -0.3284613167
 Ne    -1.9604030147     0.2615088178    -0.5351579521
 Ne    -4.8307966616     1.0254389297    -1.4943852391
