          4
Energy: -0.06062702999406741 Kcal/mole
 Ne    -3.9451647206     2.0425875314     3.6423303946
 Ne    -0.2122695215    -5.5267893355    -0.4138014292
 Ne    -2.5238053373    -6.3928209596     4.8756665756
 Ne     2.1352232102    -5.8078773392    -2.8844016408
          4
Energy: -7.206352156206332E-4 Kcal/mole
 Ne     1.5724012018     5.0916463187    -6.0865545621
 Ne     1.5829335976    -0.5135491266     7.4903489823
 Ne     1.5813743927     7.4455615663     5.7209766625
 Ne    -7.3167299733     7.2277133879    -5.2228481241
          4
Energy: -0.003087738338740913 Kcal/mole
 Ne    -3.7314109975     4.3429275227    -7.2044779689
 Ne     5.6568210908     3.1620916760     5.2707291842
 Ne    -0.9050798184    -6.6284170099    -2.6576986429
 Ne     4.4065799741    -4.1139605662    -1.8363480995
          4
Energy: -0.00321836951461625 Kcal/mole
 Ne     6.0432368769     2.4385155435     3.9980234674
 Ne     3.2914685043     4.5997115932    -4.1520216845
 Ne    -0.6148031640    -5.9645032368     0.8897699575
 Ne     6.9607472084    -0.0069760854    -5.3967787393
          4
Energy: -0.11483179375006841 Kcal/mole
 Ne    -1.7921405358     6.3969916012     1.1067002895
 Ne    -5.3648524916    -7.0423233043    -1.6146966547
 Ne    -2.3442585454    -5.5778514543    -2.0993273045
 Ne    -1.7793574452     3.2169926537    -0.1743068277
          4
Energy: -0.0010464570965076172 Kcal/mole
 Ne     7.1857587656     2.8872252724    -4.3355692070
 Ne    -6.1439945409     6.5434802118     7.0135080506
 Ne    -4.6097225648     4.0053808191    -6.7496618679
 Ne    -2.2913671793    -0.0318507434    -1.0890762380
          4
Energy: -0.05935570664117202 Kcal/mole
 Ne    -5.6968798472     3.8971464065    -0.3333248294
 Ne    -3.3937053108    -0.2710933672    -1.6454385250
 Ne    -3.6192191982    -3.1571404035    -1.4924215869
 Ne    -6.2927456299    -3.8141669921     4.4812451395
          4
Energy: -0.16605547879332008 Kcal/mole
 Ne    -2.5819709204    -6.4113555466     2.9760106774
 Ne     1.1356175900    -0.5849039759     3.5940896142
 Ne    -1.4329019383    -3.5148734960     2.5274661834
 Ne     0.6806444412    -0.2094062789     0.2093521509
          4
Energy: -0.31687494978634473 Kcal/mole
 Ne    -1.6680795662     2.5223107743    -1.4012972587
 Ne     1.1305404348     2.5617234393     0.7894709653
 Ne     0.0479549568     0.5679367128     2.9779769103
 Ne    -0.4963841355     0.1620218660     0.0566801061
          4
Energy: -0.41388970739367675 Kcal/mole
 Ne    -2.2088534031     2.5113382040     0.4643612340
 Ne     0.8269296434     2.5410141946     1.1412362353
 Ne    -1.1866137516     1.1193290162     3.0549793132
 Ne    -0.5620833901    -0.1150992391     0.2672785783
