          4
Energy: -0.41388970739367675 Kcal/mole
 Ne    -2.2088534031     2.5113382040     0.4643612340
 Ne     0.8269296434     2.5410141946     1.1412362353
 Ne    -1.1866137516     1.1193290162     3.0549793132
 Ne    -0.5620833901    -0.1150992391     0.2672785783
