          4
Energy: -0.005166958773986122 Kcal/mole
 Ne     1.3147712682     4.0941485140    -4.5018134331
 Ne     2.1539656804    -4.2979377331    -4.9074752483
 Ne    -3.2779679580     2.4915084154     1.8723384301
 Ne     4.2235744061     0.3497744164    -0.6193514537
