          4
Energy: -0.4138628411347422 Kcal/mole
 Ne     5.8987907339    -0.6579620364     1.8836682684
 Ne     7.3832105652     0.8530341441    -0.4170284867
 Ne     4.4368863276    -0.1408941658    -0.8400182692
 Ne     6.7760499615    -2.1989484594    -0.6822055451
