          4
Energy: -0.41389292234057506 Kcal/mole
 Ne     2.9970792416     1.8290730011    -2.0741727568
 Ne     0.5283724764     1.6583783661    -3.9991043486
 Ne     0.2100262332     0.8983296773    -0.9931573864
 Ne     1.8492920439    -0.9494945876    -2.9149199210
