          3
Energy: -0.01848505640342127 Kcal/mole
 He    -3.2550115162     1.3524491334     4.2445410128
 He     1.1909865572    -2.8981274164    -6.9903989358
 He    -0.9499139538     0.2468971958     2.6207373557
          3
Energy: -6.780013628297043E-6 Kcal/mole
 He    -5.8986290249     3.4195190410    -3.8645286954
 He    -7.3558853630    -7.3110910580     4.5073695828
 He     6.7907712318    -4.7492737506     4.3795066803
          3
Energy: -1.678685942285744E-4 Kcal/mole
 He     0.7117120332     1.3837562612     2.9048857554
 He    -4.4453001844    -6.7630741944     2.9900867667
 He     3.4387323605    -5.5559947837    -0.0829368516
          3
Energy: -5.342033933612917E-4 Kcal/mole
 He    -4.3754488276    -0.6770628423     0.6781947593
 He     5.0813479836    -0.2195366562     5.7213420073
 He    -0.5821985913    -2.2893347606     7.0350192569
          3
Energy: -0.010225197077016593 Kcal/mole
 He    -3.4537547943    -5.3108074531    -3.8355138313
 He     4.4481680899    -4.7423148578    -5.0905510704
 He     1.1912455954    -5.3646004478    -3.5028564867
          3
Energy: -7.682332521419785E-4 Kcal/mole
 He    -0.2085045610    -3.4482508548     0.8864034321
 He    -5.2389807615    -6.0029214459     1.3580072602
 He    -6.8343566244     0.0713457281     6.8084585244
          3
Energy: -1.912482818954448E-4 Kcal/mole
 He     5.6825901502    -4.5897321938    -2.6667678283
 He    -0.4013707647     2.2140441001     6.7878951479
 He     5.2215106169     2.4809790536    -1.7592933324
          3
Energy: -0.01628074759537474 Kcal/mole
 He     7.1037365897     5.5537040027    -3.3063091257
 He    -3.8207484619    -3.1056644256     4.1007598345
 He     6.0764508493     4.9876857428    -0.3804435455
          3
Energy: -0.05606731263092467 Kcal/mole
 He     0.8608818920    -4.3171095615    -4.6937687537
 He     1.9169412126    -5.5179800287    -7.2077282294
 He     0.9755793762    -7.1952216191    -4.7531057617
          3
Energy: -0.05999991507753631 Kcal/mole
 He     0.5801366539    -4.2969702558    -4.9641947462
 He     2.0333829683    -5.4815795698    -7.1369358604
 He     1.4650970935    -7.0203744522    -4.7836928755
