          3
Energy: -0.0599992185295319 Kcal/mole
 He     2.2145874050    -6.3026829357    -4.1614161551
 He     1.0386621836    -6.5866919026    -6.7603766426
 He     1.5554941863    -3.9704925368    -5.7001581826
