          3
Energy: -5.454650685276872E-4 Kcal/mole
 He     3.3161802564     4.0847647595    -2.8058668958
 He     4.9677420499     4.5176145961     2.8966152216
 He    -1.6349188812    -2.7977936161     2.3991905673
