          3
Energy: -0.05999936959645928 Kcal/mole
 He     2.8561186253    -1.7691285257    -2.0037026845
 He     5.6869055237    -1.6644326049    -1.5567569680
 He     4.1003885326     0.7062323850    -1.2491916779
