          3
Energy: -0.05999925232880039 Kcal/mole
 He    -0.3525475837     0.3655744608    -0.3754645054
 He    -1.4000260058     3.0268526619    -0.1440956621
 He    -3.0743707486     0.9002059266    -1.1033982395
