          3
Energy: -0.05999991507753631 Kcal/mole
 He     0.5801366539    -4.2969702558    -4.9641947462
 He     2.0333829683    -5.4815795698    -7.1369358604
 He     1.4650970935    -7.0203744522    -4.7836928755
