          5
Energy: -7.549880641059156E-4 Kcal/mole
 He     0.6067473076    -1.8838205349     2.4541421131
 He     1.3298727465    -5.1077460758    -5.4003700589
 He    -4.8786191089    -3.4777958583     1.9320558338
 He    -2.6157658678     6.8536517033    -4.7430875645
 He     3.0713432057     7.4120670752     6.0394192060
          5
Energy: -0.028390065357188812 Kcal/mole
 He     1.4007529192    -3.7785397977     1.8335626511
 He    -0.0509786490     5.7771363113    -0.1463232810
 He    -0.6445540591     4.1306524606    -4.4105788692
 He    -2.6360606559     5.9014440587    -1.5684516230
 He    -3.4770635369    -5.9024568754    -0.0358717466
          5
Energy: -0.0026337750630489707 Kcal/mole
 He     5.3235393749     7.3867122644     7.1889514861
 He    -4.0911663841     1.4794912387    -5.7649674222
 He     1.2436791947     6.7685920457    -3.5165702434
 He     5.4389610118     5.0829250785    -3.1448178808
 He    -6.1210399874    -6.2174069483     1.4327980398
          5
Energy: -0.011614636359931648 Kcal/mole
 He    -4.2424841823     6.1826206916     4.9684862098
 He     0.1896483862     2.3494025358    -3.7453071135
 He    -3.0606931291    -0.6888370212    -2.7078996776
 He    -7.3042514291     5.1789505262     6.6503318472
 He     4.8609090113     2.8616398100    -6.9487695018
          5
Energy: -0.008450970703801462 Kcal/mole
 He    -5.6222390920     2.7954709693    -0.4302919715
 He     2.6559156459    -1.4663871993     7.3114485693
 He    -1.7414001223    -7.4198989368    -3.9148484709
 He    -6.3058327858     6.0601821212     1.0752885539
 He     0.4848207313     5.7242114085     5.8632399359
          5
Energy: -0.0014719314158248627 Kcal/mole
 He    -0.7461327368    -4.2430255057     0.5299180169
 He     0.9471840051     6.7226130264     0.1179319541
 He    -5.6490069893    -7.1006541282    -0.6821867863
 He    -1.1799760702    -4.5413010458    -6.1021770933
 He     4.6742236075    -6.4243773023    -2.0089048702
          5
Energy: -0.00849306191441925 Kcal/mole
 He    -2.1761200789     5.8982147317    -5.6123067517
 He     5.4620008566     1.6669362732    -7.0197387373
 He    -7.1893434904    -4.3702391159    -5.9033886459
 He    -0.6132337473     2.9341754920    -7.1270677670
 He     5.8330861625     5.1234867152     4.2988497316
          5
Energy: -0.015844679917942014 Kcal/mole
 He    -6.5735462919    -3.4255461634     6.5020814842
 He     2.6184727662    -6.9427726969     5.6464006821
 He     5.7680346117     3.9816468962     3.2180350351
 He     1.3579542960    -4.8105471877     4.6390098525
 He     2.9788527865     6.8906983899     6.3649527740
          5
Energy: -0.00542247300040525 Kcal/mole
 He    -0.2666688932     3.5060728408     3.2311907900
 He     4.0158010486     2.2883367088     0.3191635753
 He    -3.4070113164    -6.8760808711    -0.9887423131
 He    -3.0467380988     6.1630490253     1.6742201429
 He    -6.7275151974    -1.0555468396     4.1032514552
          5
Energy: -0.18192260149411238 Kcal/mole
 He     0.7913764178     3.6875729439     1.4797396330
 He     0.5254097598     3.9112463111     4.3399844305
 He    -1.7093806249     2.9755069352     0.3209972994
 He    -1.6208323701     4.7195861271     2.6115755684
 He    -0.9957575837     1.9480604349     2.9140302714
