          5
Energy: -0.004370009902191811 Kcal/mole
 He    -1.6088846596    -6.1768245027     2.7383446122
 He     4.6640244328    -4.8699056953     1.4463769275
 He    -2.4228582750    -6.6946422733     6.8661592764
 He     3.2980551551     5.3750082129     4.9002266857
 He     7.0535240497    -0.1699508694    -2.1634055104
          5
Energy: -1.9239705473395304E-4 Kcal/mole
 He     3.3638979864     5.0941931228    -1.8908844221
 He    -6.5212242292    -5.5775563090     2.8969262069
 He     3.6727420352    -3.2571168644    -3.3573662294
 He     4.8305835957    -5.1845026943     6.6970847979
 He    -5.7476981371     2.2598199415    -0.7067165031
          5
Energy: -0.0027987920315810564 Kcal/mole
 He     1.3038750261     4.9329423711     0.9123865952
 He    -5.5148303328    -0.9865624822     3.4828099005
 He     2.2180238502     0.8117419668     2.7396762378
 He     4.3111939189     0.5833157023    -3.9727116255
 He    -3.1016600613    -5.7469492337    -6.2138366857
          5
Energy: -0.0012397786383113937 Kcal/mole
 He    -4.8020884474     4.5752165011    -5.3297768830
 He     1.0874421783     5.7634154004     5.1064529022
 He    -3.8879153390     4.2093337952     4.2616552085
 He     6.8263845244    -7.3677373716    -6.7320719287
 He     4.0164927139    -0.8830343457     5.3812859181
          5
Energy: -3.882584858548203E-4 Kcal/mole
 He     5.2149972483    -0.9732030147     0.0390612803
 He    -6.6701188377     6.4344809392     6.9130476570
 He     7.4545107093    -7.4348707857     5.8283151014
 He    -2.4314677578     6.9048752454    -6.5605305964
 He     7.2545765224     2.7998467735    -4.7378775204
          5
Energy: -0.007891147474135522 Kcal/mole
 He    -6.9087720330    -4.8744128356    -5.0960940835
 He     0.0040509489     0.6649943201    -1.4827213634
 He    -5.5007746343     1.7735710768     4.0754843625
 He    -3.5321076544     2.3664322623     7.1794968820
 He    -1.3781566506    -5.0529722490     4.7917172264
          5
Energy: -0.016383266621893187 Kcal/mole
 He     4.1180544443     0.9759004985     0.8528209713
 He    -2.3147707487     0.6050781577    -2.2600240386
 He    -5.6578592889     6.3470946861    -5.3773258571
 He    -3.2945891149     1.8718746662    -6.4377602086
 He    -0.5339306313    -1.7258317404    -4.1064162881
          5
Energy: -0.0028719825274009536 Kcal/mole
 He    -2.8564396641     7.1148775227    -0.3003177298
 He    -5.3624479295    -2.0865155548    -5.6577061724
 He    -2.5627424411     6.9713862849    -4.8393078859
 He     4.0367342460    -2.0929517931     6.0734277463
 He    -3.9980361687     3.7229810789     4.9356395913
          5
Energy: -3.665024257050309E-4 Kcal/mole
 He     1.4806205196    -7.2415435408    -5.8979308319
 He    -2.2086525194    -6.4287556679     0.4245147118
 He    -3.4843167262     7.4641031303     6.1027033641
 He     6.3792778217    -2.5873873405    -0.2860580343
 He     5.9499633514    -0.8960048644     6.9852045399
          5
Energy: -0.18199880060328097 Kcal/mole
 He     3.0606220050    -5.6317457459     1.8543904791
 He     1.8407625566    -4.5016310796    -0.4915354245
 He     0.7187937576    -3.9768999224     2.0874967594
 He     3.2175020833    -2.8054418728     1.3558911164
 He     2.8079991498    -3.7542883099     4.0265786357
