          5
Energy: -0.18192260149411238 Kcal/mole
 He     0.7913764178     3.6875729439     1.4797396330
 He     0.5254097598     3.9112463111     4.3399844305
 He    -1.7093806249     2.9755069352     0.3209972994
 He    -1.6208323701     4.7195861271     2.6115755684
 He    -0.9957575837     1.9480604349     2.9140302714
