          5
Energy: -0.18192269118048995 Kcal/mole
 He    -0.4584689555     2.1893594930     3.7108175230
 He     0.1712124288     4.7004574570     4.9189792727
 He     1.6381328108     3.8148918197     2.6280121143
 He     1.9774595404     2.4857805986     5.1435009281
 He     1.9054389682     0.9516813439     2.7182237713
