          6
Energy: -4.028650591512035 Kcal/mole
 Kr     2.4751766276     4.1258140773    -2.0733555173
 Kr     2.1221987952     2.4793621465    -5.7557983337
 Kr     6.4844482787     4.2258915722    -2.5087995584
 Kr     4.4948627598     0.7295504714    -2.9982606851
 Kr     6.1586670047     2.5688419166    -6.1875452216
 Kr     4.1166380522     5.9529300554    -5.2781964834
