          6
Energy: -0.07556274928377069 Kcal/mole
 Kr     0.2541587298     0.1769372426     0.0567866289
 Kr    -5.4236666379     1.6223305424     5.0861753295
 Kr     2.5876632275     5.8004165193     5.7071585647
 Kr     5.1703725677     3.8022356238    -5.6152588824
 Kr    -4.3245625784     6.0496105684    -3.5262700761
 Kr    -5.2630015269    -5.4795637021     1.0608341288
