          6
Energy: -0.28615294829025517 Kcal/mole
 Kr     2.5797844480     4.7981317796    -7.0568882064
 Kr     5.6745507864    -4.1117339087     1.0385517794
 Kr    -3.7752111622    -2.3825143934     6.3033396795
 Kr     1.1940619680    -6.2188084989     4.4649769024
 Kr    -7.4314981469    -3.7011228290    -0.9921104791
 Kr    -6.9792001805    -0.6686881035    -3.1225455651
          6
Energy: -0.07374711533288227 Kcal/mole
 Kr    -6.7931344500    -8.0488744691    -7.1667495649
 Kr     2.2866170613     8.1299282146     7.6113639222
 Kr     4.5140513701     2.3955136471     6.1099395580
 Kr    -0.8119046923    -2.8528865718     1.6059103204
 Kr     6.7358250001    -3.2902759623    -3.7207622331
 Kr    -2.4810337212    -1.3831066904    -8.0912700355
          6
Energy: -0.4109982994188278 Kcal/mole
 Kr    -5.6949745711    -8.2842762077     1.0200449626
 Kr     0.0603291381     8.7588093693    -8.8454365224
 Kr    -0.0642924858    -7.7374491637    -0.4240072579
 Kr    -1.6688372304     8.4983042468    -3.6761981405
 Kr     1.2970695463     2.5483339930     5.2452981208
 Kr    -1.0871620930     1.7390078928     9.0510273533
          6
Energy: -0.41388542760010305 Kcal/mole
 Kr    -0.4161861384     3.4112788986     6.3610964653
 Kr    -6.3014549433    -4.7465059026    -0.5740308002
 Kr    -5.8135123828    -7.9936091264     0.9069749465
 Kr     7.4139944651     8.4775532388    -0.6151045167
 Kr    -7.6383139588    -3.6738085580    -5.4143252019
 Kr    -0.8136449389     6.9728690129     8.5202993782
          6
Energy: -0.3333067140732066 Kcal/mole
 Kr     5.3288843851     2.5346008505    -6.3422682688
 Kr    -1.0504705940    -4.9005085539    -6.4192169991
 Kr    -1.8178058406     8.8878440286    -4.9328028137
 Kr     2.4663600244     8.8276588981    -4.9369891305
 Kr     5.2358977933    -6.3492068846     7.8453645500
 Kr    -7.9892786528     0.7028940751    -7.7720669700
          6
Energy: -1.8196454157137336 Kcal/mole
 Kr    -0.8841291387    -5.4237273820    -4.9968562746
 Kr     1.5239488295    -4.7071950533    -7.9355082368
 Kr     3.3209406433     3.1187929122     0.2639236548
 Kr     1.0804867637    -4.0295841258    -1.8077108519
 Kr     1.6952348552    -8.5616636468    -5.4626548692
 Kr     4.2871635927    -1.0763560983    -0.9951998555
          6
Energy: -3.123417571449295 Kcal/mole
 Kr     5.3722484427     0.9123275569    -3.5238176911
 Kr     4.7804245493    -2.8759303436    -8.9518192839
 Kr     1.4043640821    -3.9964865622    -7.1718849626
 Kr     1.1768910017     0.1859998842    -5.9629089923
 Kr     4.6309616197    -3.0403777900    -5.0925764533
 Kr     4.9452422931     1.0067754061    -7.7155236364
          6
Energy: -3.384504474014017 Kcal/mole
 Kr     7.1362277224    -4.7190045164    -1.7854193046
 Kr     8.6714320973    -7.8791291706     0.2825493171
 Kr     4.7932079582    -6.2181279422     1.0939401683
 Kr     5.5591820397    -4.3408690301    -5.8020611002
 Kr     3.4241541657    -4.3464245502    -2.2384442678
 Kr     5.2785018248    -8.4014887158    -2.3697755420
          6
Energy: -3.8622107296997026 Kcal/mole
 Kr     6.1296945982    -2.2863316404    -3.9782874026
 Kr     8.1848304289    -4.1293812578    -0.9245816504
 Kr     4.5013972019    -1.9289764851    -0.5473941790
 Kr     6.4356078484    -6.4253720687    -4.0279098512
 Kr     2.8413587369    -4.6310736675    -3.4205095293
 Kr     4.7561563075    -6.0149734706    -0.2138328078
          6
Energy: -4.02830131279312 Kcal/mole
 Kr     6.4053662673    -2.4525534078    -4.0912563013
 Kr     8.2146486863    -4.2496152688    -0.9638465583
 Kr     4.7431416563    -2.2166265392    -0.4147789957
 Kr     6.4362727562    -6.4750075171    -3.8515306443
 Kr     2.9822303314    -4.4574453528    -3.2684873402
 Kr     4.8041677636    -6.2619867473    -0.1238522114
