          6
Energy: -0.1577416650972489 Kcal/mole
 Kr     2.5912107207     1.0020081704    -5.0916129095
 Kr    -6.7908404355    -4.5385954001     3.3109484671
 Kr    -0.9370906276     8.4690348796     5.2743601821
 Kr    -3.3256064136     0.7995261149    -5.7557239065
 Kr    -7.2089967404    -4.3821601334    -6.1183681716
 Kr    -1.7365125800    -0.1508052800     2.4770037619
          6
Energy: -1.177785462253957 Kcal/mole
 Kr     5.3538697270    -0.3558665243    -7.7343372730
 Kr     1.8694109744    -0.6520829319    -1.4393256146
 Kr     2.6972288099    -2.5295826898    -4.8413351660
 Kr     5.6013261590    -5.5838293843    -3.4929017496
 Kr     5.1280290221    -0.1999859176     0.2813038445
 Kr    -2.3383121161     5.1116189695    -6.6597143138
          6
Energy: -1.170511372779727 Kcal/mole
 Kr    -8.7262192390     8.7768046919    -0.2703971069
 Kr    -7.1175473355     0.4998557486    -1.3164061287
 Kr    -6.7319923623     3.4972757385     1.1018449587
 Kr    -3.3919933996     2.9952360780    -7.9685539081
 Kr    -2.7064456217    -0.0936077261     3.7733772120
 Kr    -3.6896277182     2.4848257043    -1.7625697658
          6
Energy: -1.2603381852013615 Kcal/mole
 Kr     3.0838480396     6.5087635986     2.5218076160
 Kr     4.0118586037    -2.0999901718     6.2513223902
 Kr    -2.5747019685    -0.0107227757     0.0967716121
 Kr     2.7603632770     2.6213542756     4.4595838644
 Kr    -2.8236702888     0.3701041403    -3.6342861093
 Kr    -2.2455781424     3.9935438796    -1.7464141633
          6
Energy: -0.7068411210640009 Kcal/mole
 Kr    -2.6273472865     7.7868231826    -2.6679316208
 Kr    -5.1296685805    -8.2126927842    -2.6657360973
 Kr    -6.1800530264     8.7869820019     3.9514540994
 Kr     0.8335694996     5.6266396812    -2.0889463913
 Kr    -7.3944416163    -3.0336227296    -3.2748427743
 Kr    -5.7974572658     4.5819758479     5.0309956497
          6
Energy: -3.229013414602576 Kcal/mole
 Kr    -1.2839733741     8.1475641530     1.1724892308
 Kr    -3.9321644665     4.8569785758     2.4443365795
 Kr    -1.4436165821     3.4100010057    -0.1197317550
 Kr    -3.8710732794     5.9744535814    -1.6900363122
 Kr    -3.7892896397     2.2864562488    -3.1772248545
 Kr    -0.1120736522     6.8495437043    -2.5314790286
          6
Energy: -3.3649675965354664 Kcal/mole
 Kr    -3.3675763398     7.7563758965    -2.2564301479
 Kr    -4.6753105258     8.1494517329     1.5143426013
 Kr    -5.0319881048     4.3873685534     0.5093043321
 Kr    -8.6587541328     3.7684775477    -2.0832789874
 Kr    -4.7055318438     3.8134213114    -3.4517023034
 Kr    -7.4604385179     7.7139584810    -1.6930160560
          6
Energy: -3.422783698182273 Kcal/mole
 Kr    -1.7460344841     6.8106950314    -2.1674300684
 Kr    -1.2725259760     3.6497155486     0.2457573598
 Kr    -5.5784044354     4.2507179175     0.2449523111
 Kr    -5.5774963564     1.5151817312    -2.5562564059
 Kr    -1.9167143599     3.0715509583    -3.8169306744
 Kr    -5.4537953440     5.2999297571    -3.4775250756
          6
Energy: -3.8741805183540663 Kcal/mole
 Kr    -2.0993441548     3.6475439885     4.4863432181
 Kr    -2.0545970106     0.0685162576     2.6032948298
 Kr    -5.4005436755     1.4272185082     4.7323711378
 Kr    -5.6266136231     1.0681703126     0.8168368791
 Kr    -2.2146424342     3.1406486320    -0.1007314069
 Kr    -5.2337126869     4.8143415093     2.2362272997
          6
Energy: -4.027992992310984 Kcal/mole
 Kr    -2.0673474280     3.7837777434     4.3176538911
 Kr    -2.1168181552     0.1071095007     2.6324113811
 Kr    -5.3816995146     1.4742102062     4.6455436947
 Kr    -5.4814795442     1.1444856788     0.6241461707
 Kr    -2.1740147397     3.4360792155     0.2892343529
 Kr    -5.4102716357     4.8186835736     2.3227834708
