          6
Energy: -3.0893071028980503 Kcal/mole
 Xe     4.2363675342    -4.4626398375     1.3218816475
 Xe     3.0637288028    -7.4932351346    -1.2648505826
 Xe     4.0601262046    -0.5002127794    -0.8866247249
 Xe     2.3788452622    -4.2967776987     5.6799779938
 Xe    -0.1114587626    -2.9472779540     2.2898598756
 Xe     0.8662589181    -9.1230751983     2.0207424615
          6
Energy: -4.501956643087395 Kcal/mole
 Xe    -2.3886413371    -1.5031163891    -4.8605287509
 Xe    -0.4452733147     2.3467584198    -2.8576040118
 Xe    -2.3936018641     1.8926344962    -7.9786680896
 Xe     1.3862342591    -0.1670205757    -6.5061066376
 Xe     1.2740812144    -2.0110735979    -2.0091075892
 Xe    -2.7408777391    -0.3863139592     0.0100384104
          6
Energy: -3.1835697812182304 Kcal/mole
 Xe    -1.5643492140     0.1858511338    -4.1153554953
 Xe     2.5286587334     2.3843861075    -4.4834770804
 Xe    -1.5624611053    -0.6085049109    -8.2451142320
 Xe    -3.5571422729     5.0477746824    -6.9371371439
 Xe    -1.2578422243     4.3527916862    -2.2532475446
 Xe     2.8876786580    -1.9723310480    -5.4187628683
          6
Energy: -4.608367006313476 Kcal/mole
 Xe     3.0085891072     2.8236779366    -0.4442976084
 Xe     2.5032764268     3.5985193044    -7.4658966246
 Xe     0.6399515485     1.3133116708    -4.0211975677
 Xe     2.6444578305     5.5548809737    -3.5800884892
 Xe     5.3241452036     1.4902226606    -4.6037471133
 Xe     3.2269821965    -0.8602886487    -8.1487114926
          6
Energy: -4.840048861808911 Kcal/mole
 Xe     1.1700329294     4.6720650612     0.8318817687
 Xe     4.9085208947     5.8759548949    -1.8094727807
 Xe    -0.8346922605     1.4429567705    -1.5334284726
 Xe     3.8640759875     2.0096998595    -1.3418791885
 Xe     0.7730928716     4.9695612696    -3.4407779010
 Xe     1.9141861416     1.0063855356    -5.3750128664
          6
Energy: -4.742544446756575 Kcal/mole
 Xe     0.4565650917     1.9530493536    -0.0555174730
 Xe     1.8403257472    -1.4363762673     2.8124620357
 Xe    -2.6968380807    -0.4725633829     1.8480618739
 Xe    -0.1957691870    -3.1408257615    -0.4608172576
 Xe     3.1383794843    -1.0840732284    -1.7653832472
 Xe    -1.0630222846    -0.8708440795    -3.9658919727
          6
Energy: -5.226483999291896 Kcal/mole
 Xe    -0.2236419431    -0.9128325899    -4.2683128382
 Xe    -2.2878020400    -0.1029278223    -0.2435776659
 Xe    -4.7726529795    -1.9748093412    -3.7902012070
 Xe    -3.4465566111    -4.5012913623    -0.3896770172
 Xe     0.9591626077    -3.4148240850    -0.7808320726
 Xe    -1.3575747907    -4.9687664406    -4.3155975262
          6
Energy: -5.337407893120915 Kcal/mole
 Xe    -4.1225205959    -4.8208566690    -3.8592977780
 Xe    -0.9786195169    -3.1653501893    -1.3381389564
 Xe    -4.8605967629    -4.0566683332     0.5349361122
 Xe    -1.5776237546    -6.5596440957     1.7239978521
 Xe    -0.6511931844    -7.1204370593    -2.8929116997
 Xe    -4.5836030118    -8.2316931168    -1.1514474906
          6
Energy: -5.456518079194815 Kcal/mole
 Xe    -2.7453876058    -6.7187315050    -2.7985670662
 Xe    -1.6907613148    -2.6942640097    -1.3983674237
 Xe    -5.2266826267    -4.7684478399     0.3299874589
 Xe    -1.7211144766    -4.2125550644     2.8092643393
 Xe     0.8218962886    -6.0779623610    -0.4397558744
 Xe    -2.7185701675    -8.2658247063     1.2705978537
          6
Energy: -5.502697946151083 Kcal/mole
 Xe    -2.7579216547    -6.7435880281    -2.7957873233
 Xe    -1.7866951810    -2.7034271542    -1.3498642057
 Xe    -5.2923852030    -4.8685958189     0.2288091242
 Xe    -1.7658332564    -4.1954552144     2.7799940691
 Xe     0.7849761055    -6.0736362833    -0.2694761345
 Xe    -2.6806707697    -8.2449031594     1.3327607251
