          6
Energy: -0.36788041296109464 Kcal/mole
 Xe     0.0507487348   -10.8576373369    -3.9128264448
 Xe    -9.1446862429    -8.1326296751     4.0130377104
 Xe    -7.4204147575     1.2617829307   -10.9251741914
 Xe    11.6857137481    -9.5546375693     5.1010379092
 Xe     7.7618487715   -10.8970332309     5.5579477902
 Xe    -0.8089580510     1.6054500082    10.3130124715
          6
Energy: -0.295121015811696 Kcal/mole
 Xe   -11.3720341695     3.5757879804     4.7658517565
 Xe    -6.9293948914     0.1781254890     2.0047787926
 Xe     4.8728758988   -11.5838796143     2.8445342592
 Xe    -2.5357107554    -7.3750312566    -5.7714792797
 Xe    -9.6122977057     9.1741105546    11.6061099166
 Xe    -4.9618668112    -8.8542703829    -0.7924532725
          6
Energy: -2.7969207305195236 Kcal/mole
 Xe     8.4609147606     1.6875819771     4.6085262809
 Xe    -8.3936944733    -1.1528536225    -0.5168121290
 Xe    -6.6827902802     2.4471907952     0.7237684030
 Xe    -8.3324853241     5.2061603448     3.9483814464
 Xe    -3.8168811664     5.6661136706     2.4251282310
 Xe   -10.0861282170     1.0031074726     3.5266843926
          6
Energy: -0.8188868328359323 Kcal/mole
 Xe     0.1470361444     9.7903688901     0.8806388278
 Xe    -3.6737193743     5.3427589116    -7.6091041318
 Xe    10.8377346871   -10.5390571723     5.5874687576
 Xe    -0.0782451722     1.7854231369    -7.7984322846
 Xe     2.8092799663   -11.4750708164    -7.0426085602
 Xe    -3.8297885854     0.5369035837    -8.4656598279
          6
Energy: -4.29811842425542 Kcal/mole
 Xe     0.2554370436    -0.9396669017    -2.8168702161
 Xe     0.7450135431     3.2987730387    -2.3246513988
 Xe     4.6280521282     5.4975860346    -2.1153980098
 Xe     0.3582722357     3.6836113208    -6.6656433616
 Xe    -3.1149400969     2.0246359243    -4.3744071012
 Xe     4.0539425478     2.1815616608    -4.7455789564
          6
Energy: -4.5202337790860305 Kcal/mole
 Xe    -2.1002076330     4.5044078126     2.3465262005
 Xe    -6.0452915031     5.1344791383    -1.0564471693
 Xe    -5.2899738090     1.0824432459     1.9726272395
 Xe    -4.7922744523     0.4656201089    -2.1898842617
 Xe    -1.2415009307     0.5575215273    -0.1733297413
 Xe    -2.1220049933     3.9339602243    -2.3517486932
          6
Energy: -4.732112796182939 Kcal/mole
 Xe    -5.7889226638    -2.7283438463     3.9564192479
 Xe    -4.9494732347     1.3181471580     1.1767711697
 Xe    -3.1146027687    -1.7495597128     7.7817799201
 Xe    -8.8739254397     0.5406636313     3.0924579194
 Xe    -5.4068951648     1.2653546730     5.9088338422
 Xe    -1.4455149222     0.0137007808     3.6606814970
          6
Energy: -5.059754361316762 Kcal/mole
 Xe    -2.6277051335    -5.0737106775     6.8842617392
 Xe    -4.7033062321    -1.3923405890     6.6595551993
 Xe     0.4304331004    -4.8036866440     3.6766315902
 Xe     1.6822577253    -5.1418441816     7.8539642938
 Xe    -0.2896698889    -1.3951603058     6.1737536325
 Xe    -3.5787561116    -3.4475652037     3.1210048988
          6
Energy: -5.237787992799114 Kcal/mole
 Xe    -1.2444510448    -6.5910024012     1.4808364740
 Xe    -0.9816218172    -7.2060302143     6.0043044068
 Xe     0.7793604968    -2.7918643219     1.3709552176
 Xe     2.5475926964    -6.8910271489     3.3099723773
 Xe     1.6796556959    -3.4413807333     5.5149188978
 Xe    -2.6014276239    -3.4823611859     4.1810625165
          6
Energy: -5.502613077550719 Kcal/mole
 Xe    -1.3878476581    -6.7006697782     1.5250525769
 Xe    -0.8732716998    -7.0722149007     5.8611777385
 Xe     1.0147471378    -3.0095653424     1.5492305139
 Xe     2.6537158569    -6.7346125884     3.2477777300
 Xe     1.5132680609    -3.3902883134     5.8876717874
 Xe    -2.5201188874    -3.3541356335     4.1769680459
