          6
Energy: -5.502697946151083 Kcal/mole
 Xe    -2.7579216547    -6.7435880281    -2.7957873233
 Xe    -1.7866951810    -2.7034271542    -1.3498642057
 Xe    -5.2923852030    -4.8685958189     0.2288091242
 Xe    -1.7658332564    -4.1954552144     2.7799940691
 Xe     0.7849761055    -6.0736362833    -0.2694761345
 Xe    -2.6806707697    -8.2449031594     1.3327607251
