          6
Energy: -1.8617200042691744 Kcal/mole
 Xe   -10.6264686108    -3.2138107142    -1.3693378292
 Xe    -8.6428516397    -6.5227376797     1.0102188129
 Xe    -9.8068159893    -8.5697539261    -2.7988894135
 Xe    -7.0272636442    -0.4396039580     3.3503566671
 Xe    -4.6467234056    -7.1110690277    -4.9147204528
 Xe    -3.4184010196     0.7508097732     5.6957530526
          6
Energy: -2.972126096645362 Kcal/mole
 Xe    -6.2317049380    -2.5442383088     1.5798604305
 Xe    -8.1620369000    -7.3292233887     2.5825186679
 Xe    -9.6100459543   -10.4065013746     5.3725464342
 Xe    -6.5856315385    -8.8377347292     7.7865428461
 Xe    -7.6926336651    -3.7232066470    -2.0947419642
 Xe    -5.3047121773   -10.2512402883     3.6647041738
          6
Energy: -2.700882799610347 Kcal/mole
 Xe    -5.5871430454    -3.1579609873     6.6040748756
 Xe    -1.6954756136    -9.8560950754     2.8399838253
 Xe    -1.8502271571    -0.4288879562     6.6860163891
 Xe    -1.7810264833    -5.1115436592     2.8705646618
 Xe    -1.3759618744    -5.0381768832     9.2911909217
 Xe    -6.2245693157    -5.5413802072     2.9897663702
          6
Energy: -4.309837092581222 Kcal/mole
 Xe    -4.2856636674    -4.7253363284     8.9632266367
 Xe    -0.8107429449    -2.3797563811     5.7544794541
 Xe    -4.6618729873    -0.4253439040     7.4017871700
 Xe    -0.4200381849    -6.4872536194    10.7364983559
 Xe     0.1887508447     1.3887139978     7.9666547498
 Xe    -1.4427637036    -1.7540443852    10.4763521051
          6
Energy: -4.88914794680158 Kcal/mole
 Xe     1.3627796234     3.0700120846     8.4279949172
 Xe     4.0534606371     2.7254098892     5.2162245315
 Xe     0.3799713864     1.4724162521     3.5324123299
 Xe     1.4834397823    -1.0836636770     6.7915370799
 Xe    -2.3700259894     1.1052560263     6.7341809900
 Xe    -1.6975924822    -2.3709607074     3.9012236692
          6
Energy: -4.423496801185664 Kcal/mole
 Xe     4.8719411091     0.7259238650     8.0193487632
 Xe     1.2889969575    -0.6482157526     5.3289504023
 Xe    -0.8604122871    -4.1939687975     8.6528253769
 Xe     3.8607781219    -4.0640615575     6.4023738130
 Xe     0.0253189709    -0.0329077157     9.6241429919
 Xe     2.9309681155    -3.5271651530    10.5213669684
          6
Energy: -4.8929221219581995 Kcal/mole
 Xe    -1.8484649402    -3.4368805933     8.6729736694
 Xe     0.8279211664    -8.2993002200     5.0410305745
 Xe    -3.9674187339    -7.1981622130     7.2888167652
 Xe    -1.3538946298    -4.8600351513     4.4694001124
 Xe     0.3757816130    -6.9889807638     9.2194535289
 Xe     2.1279138309    -3.6745159201     6.6033771950
          6
Energy: -5.254496171922767 Kcal/mole
 Xe    -1.7308573959    -5.7434275219     5.0320189269
 Xe     3.7142711188    -8.7882702929     7.0430665686
 Xe     0.0821078020    -9.9523886227     4.2772870741
 Xe     2.6752560045    -6.3753381600     3.6185051961
 Xe    -0.3649633517    -8.1883595060     8.3514595088
 Xe     2.1473109640    -4.7206408102     7.7702119822
          6
Energy: -5.3850414466414165 Kcal/mole
 Xe    -1.7325255613    -8.4197830990     7.0869679322
 Xe     4.6383141251    -8.9684116101     8.2345420293
 Xe     0.9742165755   -11.4414711817     9.2851329716
 Xe     1.9207791576   -10.2765029792     5.2022107468
 Xe     1.1602331548    -7.1868947622    10.2686055782
 Xe     1.7765847461    -5.9844238897     6.2355371871
          6
Energy: -5.502502084535072 Kcal/mole
 Xe    -1.6284683850    -8.4985116461     7.2457798551
 Xe     4.4852428564    -8.9783169013     8.3861829572
 Xe     0.9160657020   -11.3669336092     9.4042609383
 Xe     1.7833829228   -10.3743993640     5.1972747015
 Xe     1.0836977612    -7.0874783755    10.3945643235
 Xe     1.9261919734    -6.1032384967     6.2225145596
