          6
Energy: -5.502613077550719 Kcal/mole
 Xe    -1.3878476581    -6.7006697782     1.5250525769
 Xe    -0.8732716998    -7.0722149007     5.8611777385
 Xe     1.0147471378    -3.0095653424     1.5492305139
 Xe     2.6537158569    -6.7346125884     3.2477777300
 Xe     1.5132680609    -3.3902883134     5.8876717874
 Xe    -2.5201188874    -3.3541356335     4.1769680459
