          3
Energy: -0.9509942326111525 Kcal/mole
 Kr     4.1400159762     7.2811282221     3.0748317165
 Kr     6.8116038840     4.7999510610     4.8835366785
 Kr     3.5809812840     6.1637292377     6.9441167513
