          3
Energy: -0.04290143801529256 Kcal/mole
 Kr    -3.1817639531     4.5541286954     3.1167952732
 Kr     5.1342519440     3.1278160733     3.1650843847
 Kr     0.0384863847    -2.0996898800     3.8822987451
