          3
Energy: -0.9509981900305724 Kcal/mole
 Kr    -5.7103599555    -3.9649704728    -7.2825821156
 Kr    -4.2915156259    -7.7746309564    -7.1723056081
 Kr    -7.8674917114    -6.8850715156    -5.4503730782
