          3
Energy: -0.9509887399694729 Kcal/mole
 Kr     5.0717331556     5.7011352875    -4.5023415944
 Kr     4.6150000456     6.9648797540    -0.6617622574
 Kr     7.8003860605     8.2317323767    -2.8503953326
