          3
Energy: -0.003804430662282469 Kcal/mole
 Kr     1.2035664517     2.9526052223     7.0442096347
 Kr     4.5735179033    -6.5262074050    -1.8857729725
 Kr    -0.2368511034     2.0438048322    -4.9466778037
          3
Energy: -0.07633508989538042 Kcal/mole
 Kr     1.6335821232    -6.6242012400     5.2680888188
 Kr    -6.7392949013    -5.3037956714    -4.2521627237
 Kr     6.6648574050    -8.2439539923     7.4939165675
          3
Energy: -0.2213740413462106 Kcal/mole
 Kr     6.7428499451     3.3523151675     5.3915074595
 Kr    -2.5832420384    -5.7409952215     6.2407503140
 Kr     2.9817087524     1.6245583787     7.5543001105
          3
Energy: -0.42288332040483645 Kcal/mole
 Kr     1.5462901717    -7.2311052731    -4.2765392540
 Kr    -1.6712100572    -7.0922586165     3.2069912892
 Kr    -1.1957877946    -4.8212893075    -0.2606313650
          3
Energy: -0.5741774583972072 Kcal/mole
 Kr     7.0228042582     5.6070489341     1.6558370906
 Kr     5.1149917530     4.4782069946     5.3748752010
 Kr     4.2277359047     0.7161204442     2.7171028944
          3
Energy: -0.6551172338364539 Kcal/mole
 Kr    -7.8329016614    -6.4760299479    -1.4994479442
 Kr    -6.7855352379    -4.4918588717     1.9280299877
 Kr    -6.7276534567    -8.1811647134     1.6742834668
          3
Energy: -0.3176786719524959 Kcal/mole
 Kr     1.0904033855    -2.0055808793    -5.3339830457
 Kr    -6.8189971062    -0.7581598197     5.3088999702
 Kr    -0.5910990363     0.3710661657    -8.1578358109
          3
Energy: -0.9345137730731632 Kcal/mole
 Kr    -0.5571639875    -3.4193790804    -7.1984659965
 Kr     0.5856678086    -0.8829266951    -4.1360643204
 Kr     0.5850218556     0.5049027729    -7.8403155168
          3
Energy: -0.9150244286842198 Kcal/mole
 Kr    -6.1190183892    -4.5852568166    -1.5863838286
 Kr    -2.5576958880    -5.3741692758    -3.5537883190
 Kr    -2.5428219531    -5.8801096017     0.4974795695
          3
Energy: -0.9509877500450405 Kcal/mole
 Kr    -6.1235225248    -5.0064504824    -1.6900102612
 Kr    -2.5726910374    -5.5207995281    -3.6034383838
 Kr    -2.6456779029    -4.8350071981     0.4053597496
