          3
Energy: -0.11693357475035572 Kcal/mole
 Kr    -3.4438955097     6.7825021851    -7.7153065025
 Kr     5.4523645950     5.4574127536     3.6805692167
 Kr     2.2504627319     3.3604866564     7.3451013043
          3
Energy: -0.07053201544608773 Kcal/mole
 Kr     5.1840269127    -3.0989854983    -7.8649988665
 Kr     3.0938277049     3.9554317668    -3.3315049318
 Kr    -1.3449944121     7.4901952219    -1.6471714770
          3
Energy: -0.00938674324641479 Kcal/mole
 Kr     4.8562544447     4.5714555193     3.7646157518
 Kr     3.3093537953    -3.9247315559     5.0102196837
 Kr     0.5378965475     1.2948987491    -5.4243719237
          3
Energy: -0.12949788612735924 Kcal/mole
 Kr    -7.4833704037     2.7578144096    -3.3806233859
 Kr    -7.4038932454     7.9355829992    -4.2698487188
 Kr    -3.2320218816    -0.3676215938     3.4902757451
          3
Energy: -0.352946077122061 Kcal/mole
 Kr     0.7237277168    -2.3474567103     2.2940413686
 Kr     6.5268856389     3.4257753564     2.7155204170
 Kr     4.5883131330    -3.0548962915     3.1022386253
          3
Energy: -0.7777080034894237 Kcal/mole
 Kr    -5.3785638314    -2.9641395773     2.9411867896
 Kr    -4.9557285234    -4.8423809567    -1.5720656717
 Kr    -1.9956556036    -3.6344052520     0.6623505475
          3
Energy: -0.7892473002100638 Kcal/mole
 Kr    -0.6462977627    -1.8327565704     3.5227801653
 Kr    -3.3169220879    -1.9880013390     7.1039542296
 Kr    -4.1777977785    -3.9465665753     2.9659710466
          3
Energy: -0.8898437582284094 Kcal/mole
 Kr    -2.2489132695    -1.5764346137     5.7759814672
 Kr    -5.2036032977     1.3820781776     6.5005491828
 Kr    -3.6674654347     0.6159628057     2.4946679967
          3
Energy: -0.9497553832570655 Kcal/mole
 Kr     4.3583479311     7.6339184555     3.2541887919
 Kr     6.9321563285     4.9710640141     4.9600479460
 Kr     3.5072066557     5.9489060710     6.8441667161
          3
Energy: -0.9509942326111525 Kcal/mole
 Kr     4.1400159762     7.2811282221     3.0748317165
 Kr     6.8116038840     4.7999510610     4.8835366785
 Kr     3.5809812840     6.1637292377     6.9441167513
