          3
Energy: -0.9509877500450405 Kcal/mole
 Kr    -6.1235225248    -5.0064504824    -1.6900102612
 Kr    -2.5726910374    -5.5207995281    -3.6034383838
 Kr    -2.6456779029    -4.8350071981     0.4053597496
