          5
Energy: -0.0017812897196309671 Kcal/mole
 He     2.4509062479     0.0344809388    -4.1580022110
 He     0.1879205223     1.3856786703     3.6731603764
 He    -3.9035857437    -4.3734590468    -1.4810325309
 He    -2.2788366741    -4.7180628023     3.8245329268
 He    -3.8219045079     4.0558749857    -0.1749647062
