          5
Energy: -0.005369114868605688 Kcal/mole
 He     0.0168453424    -3.2996897847     1.8195609106
 He     5.4743450513     4.4131439855     3.3599695666
 He    -1.6234285266     2.8283876936    -6.5344558487
 He     6.0101039749     0.3959154077     2.6954510065
 He     4.0661266468     2.2182212784    -3.3847464328
          5
Energy: -0.024024873948383527 Kcal/mole
 He    -5.9691760333     4.3706651355    -5.0410888036
 He    -4.9304087868    -0.4256036849     5.8644287847
 He     3.2913007766    -1.4177243032    -2.0316885164
 He     2.3255196331    -1.1639819782    -6.4212265218
 He     1.4618631229     1.4218372307    -5.6710517071
          5
Energy: -0.0019156984250987468 Kcal/mole
 He    -0.6928237570     2.0938482244    -3.0791667637
 He    -0.0243646646     5.9274893083     5.2836701206
 He     5.6434234178    -6.1628238655     7.4204781056
 He     1.2868385758     0.9458950076     4.9362807727
 He     3.6998498637    -1.6470306074    -4.0126028220
          5
Energy: -0.016997368030421754 Kcal/mole
 He     1.4869908154     5.8787133450     5.0027737771
 He    -2.0366334691     6.5609636562    -2.4670672126
 He    -6.6430242863     1.6285231523     6.6385179057
 He    -4.1910763327     1.8460336205     5.5095005334
 He    -4.8449692909    -4.3642890882    -0.8213141062
          5
Energy: -0.0019509686567117303 Kcal/mole
 He    -6.6784197319    -2.6009632851     6.5767506198
 He    -1.8557309475     1.7435972867    -4.6632053780
 He    -3.4385928729    -5.4366823443    -3.9910896024
 He     1.2069186780    -3.8283227087    -5.2962619844
 He    -6.1613793754     3.6625739886     1.4584297343
          5
Energy: -0.007060644584226049 Kcal/mole
 He     6.7864650770    -0.3980589774    -3.7831989474
 He     2.9884389946     1.4848159999    -4.7762173773
 He     5.8847446206    -4.5566651044    -3.9514320441
 He     3.0335508658     7.1687682927     6.4289483155
 He     3.0952920301    -1.0701960107     6.2369477839
          5
Energy: -0.04678110625680696 Kcal/mole
 He     2.6993473638     6.6380144583    -3.3259302354
 He    -4.9489752260     4.7228149389    -1.2907364646
 He    -4.3047110314     1.5198774146    -0.0213797255
 He     0.2973971933    -2.8990270456     6.6947810443
 He    -4.1807990302     4.0947150955     1.5945983505
          5
Energy: -0.09018791523903844 Kcal/mole
 He    -4.5859410197     0.8256191397    -3.3857735661
 He    -6.9416464231     2.0729526720    -0.5281549853
 He     5.9264622137    -6.0823930789     1.4191484307
 He    -7.1869211026     1.8900032898    -3.5415375968
 He    -5.0384094383     3.3804907362    -1.8039477620
          5
Energy: -0.16133940184533135 Kcal/mole
 He    -0.9131123240    -0.8971765048    -2.8249118975
 He    -3.4037443311    -0.2457144150    -4.2903091318
 He    -3.6770039525    -0.7661791212    -1.3725471863
 He    -1.2359653439     1.0282770395    -5.4457219116
 He    -2.0533358858     1.7262751487    -2.5174369786
          5
Energy: -0.1819863412855265 Kcal/mole
 He    -0.9247737508    -0.8205496317    -3.0239162182
 He    -3.4225545554    -0.1946344829    -4.2854112217
 He    -3.3271004902    -0.7555569351    -1.4700374226
 He    -1.0614457685     1.1810723728    -5.0684801842
 He    -2.1910718553     1.6850655659    -2.4864766041
