          5
Energy: -0.002889225948828063 Kcal/mole
 He     1.7740858329    -3.8845583572     4.7494989352
 He    -6.9629760418    -1.7138988992     4.5141625025
 He    -0.2508664066    -4.3900883413    -6.7642241944
 He    -2.2850547689     0.6783499732    -3.5912790086
 He    -2.5732495226     5.2040494100    -3.1202196115
          5
Energy: -0.01749287565268794 Kcal/mole
 He     7.1592541389     4.7242032669    -3.7643750417
 He     0.5081684348    -3.9866140599    -3.2199037609
 He    -3.6405073298     0.4198898491     0.5544640929
 He     5.7255526707    -1.7117832819    -5.3701527043
 He    -0.6099559008     1.0913566396    -0.0425490169
          5
Energy: -0.017161067955066084 Kcal/mole
 He     2.5876990880     1.3228362886    -6.9708399129
 He     6.7552895824    -6.7681019721    -0.3282702928
 He    -3.6486458050    -4.3211014794     0.3142661788
 He     1.0895823400    -2.7794680350    -7.4800350205
 He     5.7452010466     0.4244986534    -6.5779839916
          5
Energy: -0.004417751371375497 Kcal/mole
 He    -1.6304069855    -6.9422407125    -0.5305804758
 He    -7.0609848967    -3.9648073493     1.4687334447
 He     1.3845400629    -3.5988727976    -1.4411072616
 He     3.0772611882    -1.9396042920    -5.8837963061
 He    -4.4690966052    -0.0216037362    -4.6327040174
          5
Energy: -0.022257467572139367 Kcal/mole
 He     0.1000016816     6.3349523143     7.4058781584
 He     0.3369917558    -0.6892032700    -6.0075401450
 He     0.5637211202     5.7690967642     4.1187415875
 He     3.1989705410    -5.9846325342     0.3426773491
 He     2.7271345257    -3.0567109134    -7.1084386109
          5
Energy: -0.03719308415517221 Kcal/mole
 He     1.0790696928     1.3620693910    -6.1628161105
 He    -1.3036569909     4.0809985447    -6.5989598283
 He    -1.9492716869     1.5455497586    -4.7833281149
 He     4.9591823544     2.2604164750     1.2802338786
 He    -0.7085716175    -6.2282526268     6.1380640703
          5
Energy: -0.006018604328258946 Kcal/mole
 He    -2.4643680144     0.7535100282     4.7188654752
 He    -4.6248157346    -2.5028644107     4.8020241684
 He     3.2688776954     5.3332778253    -6.8082442175
 He     1.3165456871     6.3900886610     0.6218687669
 He     4.2516189914    -3.8744116735    -6.3811329988
          5
Energy: -0.04261535938914523 Kcal/mole
 He    -4.9324086865     1.3930267231     6.4673181553
 He    -1.5302920376     3.9668163383     5.0806886737
 He    -2.5727732830     1.2067565345     4.7763277438
 He     2.4656863333    -0.2151135526     0.7441676590
 He    -2.8334324763     2.6677037889    -3.3184088564
          5
Energy: -0.14549111772851261 Kcal/mole
 He     3.1894465635    -3.4531171256     3.3672002204
 He     1.8545899903    -1.3457093103     1.8057123472
 He     1.1257250944    -0.9841161701     4.5353870210
 He     1.8735188531    -3.8351560497     5.7622794054
 He     0.4070458255    -4.1779869087     3.0845598791
          5
Energy: -0.1819908855736017 Kcal/mole
 He     3.1537720811    -3.2063578835     3.6445135807
 He     1.5881644995    -1.7418174216     1.7529392404
 He     1.3874626570    -1.1047621758     4.5238715986
 He     1.6470509383    -3.5065662928     6.0845273255
 He     0.3133731504    -3.5757616092     3.5474298480
