          3
Energy: -9.355726525039573E-5 Kcal/mole
 He    -2.7105711487    -3.2382910605    -0.7924543365
 He     5.0128736022    -4.3088193608    -5.9927416352
 He    -4.5926199731    -5.1065675989     7.2730739395
          3
Energy: 0.006445169533801024 Kcal/mole
 He     2.2115795605     1.1432947475    -1.9356313702
 He     4.2366651240    -5.7459743815    -3.5466596884
 He     1.9282980725    -6.4564771097    -4.2810818039
          3
Energy: -1.9953380531883576E-4 Kcal/mole
 He    -0.5538473761    -4.1013819548    -1.7059975059
 He     5.2582377070     6.6268278727     6.9186680422
 He     3.3010839263     7.0286597224     0.2140177984
          3
Energy: -9.47704623002216E-5 Kcal/mole
 He    -7.4536844343     7.3931923827     2.2004034936
 He    -5.4149636323     1.5560702677    -3.0002168826
 He     5.0232826614     0.8370567896    -5.9808049030
          3
Energy: -0.0028098777000262125 Kcal/mole
 He    -1.1451664844    -1.6818408573     2.0811530069
 He    -4.3989858292    -5.6792620665     2.9330766487
 He    -5.4526149215     0.5083957917     0.9274737075
          3
Energy: -0.0027685691864277537 Kcal/mole
 He    -5.2094466100    -4.7821413507     0.5592464274
 He    -2.5467792562    -0.2055531879     1.3018357094
 He    -4.6924795805    -0.9696806312     5.6859341952
          3
Energy: -5.4685921307101494E-5 Kcal/mole
 He    -0.4794381367     6.8580104463     5.0890183716
 He    -7.3237919396    -1.4804448765    -6.8746789280
 He    -1.4799519703    -1.8550884346     0.7847332679
          3
Energy: -1.5036005849784954E-4 Kcal/mole
 He    -5.6457769106     1.2977929088     2.7779712196
 He     0.1824736766    -2.7118433664    -0.2749881019
 He     5.8926040247     2.7980654791     4.4907911903
          3
Energy: -1.6396925895269056E-4 Kcal/mole
 He     3.9385817322     7.3868686643    -3.2525607108
 He     6.1555543006     1.4919536125    -7.3463347193
 He    -2.7925614337    -1.5023914722    -6.7343270194
          3
Energy: -0.05999795789257653 Kcal/mole
 He     1.0028806188     4.1287700878    -3.5237653268
 He     2.6116068286     4.1567566654    -5.8982643774
 He     0.0540751228     2.8661870557    -5.9163948402
