          3
Energy: -3.4033691268480013E-4 Kcal/mole
 He     2.3953737611    -4.7938308964     3.0310717151
 He    -4.6874465205     4.5240608241     2.4709257688
 He    -2.7197197116    -2.5741099206    -0.6721080573
