          3
Energy: -0.05999919328461488 Kcal/mole
 He    -1.0791954410     1.6165400021    -2.7463451478
 He    -1.4171824397    -0.3134159827    -4.8391047518
 He    -2.0830490242    -0.9981833949    -2.1340458357
