          3
Energy: -0.05999960238568093 Kcal/mole
 He    -2.7108519933     1.9510963284    -1.4700852060
 He     0.0829062872     2.5871682688    -1.3388479590
 He    -1.7528214677     4.4350011077    -2.5373481028
