          3
Energy: -6.419285469038658E-4 Kcal/mole
 He    -6.7616881390    -7.0802454564     2.7483283987
 He     2.8761853475     2.4901790557     6.0836214852
 He     2.0603983450     7.1716377269     2.9163928721
          3
Energy: -2.70509157679671E-5 Kcal/mole
 He     5.8847166638     6.1561793813     2.5623552907
 He    -4.7034606316     6.7028662785    -3.5452017599
 He    -5.2276372439    -2.8148502395    -7.2303372850
          3
Energy: -3.42283839402756E-4 Kcal/mole
 He     2.7345301759     1.6208275062     0.3071357249
 He    -4.0777644579    -2.7839545413     2.9914205796
 He    -5.6495925973     3.4030587886     0.7096140661
          3
Energy: -8.669563568050023E-5 Kcal/mole
 He     1.3948997145    -5.8012737132     0.0633282477
 He     5.9944368228     1.0504475754     3.9355014661
 He    -6.1922484531    -2.2983058984     3.3621645407
          3
Energy: -1.4253986915354594E-4 Kcal/mole
 He     5.3462362160     4.8154196895     4.0163074828
 He    -7.0107364153    -7.2267519629     5.8782679383
 He     6.5276532592     5.6646484250    -3.1864334942
          3
Energy: -4.0751013267464013E-4 Kcal/mole
 He     2.4716685106     4.7691495571    -0.3865529246
 He    -6.9960205604     6.2141649233    -6.0375078821
 He     4.3191011892     0.8574106036     4.0414395869
          3
Energy: -3.3814510056498986E-4 Kcal/mole
 He    -1.3013643089     7.2076718160    -7.1852369047
 He     6.5251681574    -2.8683585946    -4.9911852430
 He     2.7059205980     1.9425804394    -2.4410024874
          3
Energy: -5.92711096023763E-4 Kcal/mole
 He     0.7034906746     3.4198099367     1.5588555350
 He    -5.8117710334    -4.6297770141    -4.5058882649
 He     0.9934699406    -2.4191685958     1.6817964379
          3
Energy: -6.027434630612015E-5 Kcal/mole
 He     3.1938559160     6.3192769976    -6.1451962577
 He    -1.6332675002    -0.7728539995    -6.3308071601
 He    -2.1525243517    -2.7353837294     7.1372357858
          3
Energy: -0.05999919328461488 Kcal/mole
 He    -1.0791954410     1.6165400021    -2.7463451478
 He    -1.4171824397    -0.3134159827    -4.8391047518
 He    -2.0830490242    -0.9981833949    -2.1340458357
