          3
Energy: -0.05999795789257653 Kcal/mole
 He     1.0028806188     4.1287700878    -3.5237653268
 He     2.6116068286     4.1567566654    -5.8982643774
 He     0.0540751228     2.8661870557    -5.9163948402
