          3
Energy: -0.05999916618757986 Kcal/mole
 He    -3.8113064712     0.8544484014    -2.4679366854
 He    -4.6045538379     3.4903353542    -3.2749516367
 He    -2.9930135600     1.8850127470    -5.0194710927
