          6
Energy: -0.8765983395046835 Kcal/mole
 Ne    -1.7062119226     0.4878034131     3.8180876172
 Ne    -0.5465119142    -0.2482621276     0.9947164857
 Ne     1.1862334780     0.7018572838     4.9339983127
 Ne     0.3850891512     2.3503088841     2.4187680628
 Ne     0.2406026238    -1.9071123457     3.5057532555
 Ne     2.3290979329    -0.0503817493     2.1405727679
