          6
Energy: -0.024112320049386356 Kcal/mole
 Ne     4.2823167637     0.6712371246    -5.3475370266
 Ne    -0.9240425165    -1.9492088699     4.0176165005
 Ne     5.2471595389    -6.0075377434    -0.7631018435
 Ne    -2.9580714503     2.9783131920    -3.9200108168
 Ne     6.8202383524     4.4611951748     4.2582935974
 Ne     3.5451592878     1.6573143268     4.0170465127
          6
Energy: 0.10035603069107715 Kcal/mole
 Ne    -5.7827253671    -4.4135528399    -2.1403384149
 Ne    -7.0405981276    -5.9459577138    -3.8958005474
 Ne    -3.2929048789    -1.8965355162     1.0777304267
 Ne    -6.8437464763     0.7932860577     6.5177662248
 Ne     3.1105787703     3.4685597435    -2.0009143839
 Ne    -5.9301414026     4.7316947277     4.1589596123
          6
Energy: -0.016825768181961576 Kcal/mole
 Ne     0.9405600216    -6.7012895080    -6.5334817016
 Ne     0.5296503192    -1.4984799145    -7.1997746069
 Ne    -3.0095017900     1.6714239743    -5.9532783316
 Ne     3.0557976894    -1.3564020365    -0.4686044786
 Ne    -4.8360661994     5.2311331994     6.7549223159
 Ne     2.2497419468    -6.1046732907     6.9241053373
          6
Energy: -0.0539251621373205 Kcal/mole
 Ne    -7.4661790955    -2.9593230173    -6.5111155405
 Ne     0.3905058405    -0.5171477834     1.5326467228
 Ne    -7.0727484967    -4.3353328347     6.8423104088
 Ne     1.6328204484    -7.4685850453    -0.7726598514
 Ne     3.5822971581    -0.4593422941     0.0914991140
 Ne    -3.7392671061     6.5238525215    -5.9528836269
          6
Energy: -0.031063893044815417 Kcal/mole
 Ne     2.3589851075    -3.8739235913     5.8591624299
 Ne    -2.2199028790    -7.0240859942     1.9207254144
 Ne    -5.5753191664    -5.0032264589     1.0130241627
 Ne    -1.5549559751    -1.0115023763    -3.8121999567
 Ne    -6.3177289818     6.9950280244    -3.0829202731
 Ne     4.7016681191     1.7841059273     2.1846753468
          6
Energy: -0.12124222871834026 Kcal/mole
 Ne    -5.3897394877    -1.3273343175     4.6922065683
 Ne    -3.6305315940     6.5073610226     5.1716393880
 Ne    -0.7968491436    -3.3168792854    -0.8759062869
 Ne    -0.7409786291    -3.9877599640     1.9878018386
 Ne    -3.4062031197     5.1463101127    -4.9629418069
 Ne    -3.5577725090    -6.1510430386     1.0023501857
          6
Energy: -0.03400089892659222 Kcal/mole
 Ne     7.0499115715     4.7826844339     3.2549132964
 Ne    -5.9304023995     3.2345614768    -6.6992325202
 Ne     7.3227966073     6.8676003145    -5.8974319724
 Ne     2.7807642890     3.9055539182     1.6707671017
 Ne     5.4104499217     7.0068134569    -1.4654741002
 Ne    -0.6694038376    -5.7082332115    -1.6286756592
          6
Energy: -0.1912283396558116 Kcal/mole
 Ne    -5.1548293691    -1.4814671481     1.6788887209
 Ne    -2.3366901316    -0.9369982712     4.7881817599
 Ne     0.5433591327     1.3773150223    -2.4524124822
 Ne    -0.6388801959    -2.0366824594     2.2880098108
 Ne    -2.1298005496    -1.7235681818    -1.0857658509
 Ne    -3.9326236705     6.2004950459     7.2737098447
          6
Energy: -0.7281272179527017 Kcal/mole
 Ne    -1.8074710106     0.7964259282     3.6767204788
 Ne    -0.6042418905    -0.2747591652     0.9675010197
 Ne     1.0349804497     1.0276185608     5.1896210718
 Ne     0.5427125454     2.7851068983     2.4226010469
 Ne    -0.0327241507    -2.3266253999     3.2971802843
 Ne     2.3072355212     0.0745509656     2.2355655483
          6
Energy: -0.8765983395046835 Kcal/mole
 Ne    -1.7062119226     0.4878034131     3.8180876172
 Ne    -0.5465119142    -0.2482621276     0.9947164857
 Ne     1.1862334780     0.7018572838     4.9339983127
 Ne     0.3850891512     2.3503088841     2.4187680628
 Ne     0.2406026238    -1.9071123457     3.5057532555
 Ne     2.3290979329    -0.0503817493     2.1405727679
