          6
Energy: -0.8482857368395051 Kcal/mole
 Ne    -0.6498009243    -0.3263197912    -2.8451606929
 Ne    -0.0955659479     2.4071165705    -1.5023140825
 Ne     2.1994264608     0.3361530873    -1.8009096961
 Ne    -1.0388868626     2.4024258595     1.4559469517
 Ne     1.9767663010     1.9741860008     0.8178926321
 Ne    -0.0959547082    -0.2748028816     0.1930407186
