          6
Energy: -0.8484612348063885 Kcal/mole
 Ne    -4.9015476828     3.1373207497    -4.3280664924
 Ne    -4.3473444438     4.9199006249    -1.8111363780
 Ne    -3.3328253367     1.9191430527    -1.9258456994
 Ne    -6.3756705614     2.5411131729    -1.6703479259
 Ne    -4.4377602139     3.1340050013     0.7055350130
 Ne    -2.0127120642     4.1106278179    -3.6947680988
