          6
Energy: -5.325657160114407 Kcal/mole
 Xe    11.6759164399   -33.4470568173    19.1956050219
 Xe     9.0834182177   -33.6923788064    15.6211666293
 Xe    14.1907690892   -29.8474872795    18.8784453496
 Xe    10.0787167652   -29.7666944760    17.3385049570
 Xe     9.9433986976   -30.2578381142    12.9689477412
 Xe    13.1838203259   -32.1336565192    15.2478138171
