          24
Energy: -95.57219260745303 Kcal/mole
 H     -3.8886355826     0.0669081898    -1.9433837413
 F     -3.0124620635     0.0149359842    -2.2089168923
 H     -1.4964315641    -1.3742435542     2.4591717526
 F     -2.1969556752    -1.7553681162     2.9118295019
 H     -5.1406767760     0.0174990337    -0.1744457491
 F     -5.2915720298     0.1859154836    -1.0631276505
 H     -5.6828062042    -1.9196857493     4.0041301270
 F     -4.8911395415    -2.0072903649     4.4585289898
 H     -6.7207958653    -2.1953386596     2.2038070470
 F     -6.9634459066    -1.8159286607     3.0025923813
 H     -3.0622993419    -2.8580713892     2.0255856642
 F     -3.5361231679    -3.3983828735     1.4559862595
 H     -0.8122025680    -0.0951675339     0.8707458225
 F     -0.4079435821    -0.6791887052     1.4507311187
 H     -5.1259678925    -3.1542869284     1.0430226863
 F     -5.9999718518    -2.9156055387     0.9014696102
 H     -3.1351662043     0.8647128872     3.6341992486
 F     -3.0048196136     1.1662125991     2.7780469899
 H     -4.0103030013    -0.6563345787     4.9200528152
 F     -3.6005098067     0.1530180303     5.0538694504
 H     -2.1368695107     0.5524531243    -0.9449223267
 F     -1.7855900316     0.8199199418    -0.1412101711
 H     -3.9725146064     0.2713090992     1.8155311736
 F     -4.5278606841    -0.3035246667     1.3660360394
          24
Energy: -95.56888018726491 Kcal/mole
 H     -3.8885804577     0.0566899452    -1.9414165712
 F     -3.0124649877     0.0154780384    -2.2090212462
 H     -1.5031687837    -1.3781624480     2.4548488014
 F     -2.2042938017    -1.7430220560     2.9198113543
 H     -5.1345654130     0.0168952370    -0.1756210282
 F     -5.2918962234     0.1859475136    -1.0630653046
 H     -5.6735876641    -1.9337670861     3.9984415568
 F     -4.8729485580    -2.0135423011     4.4383301072
 H     -6.7240280243    -2.1671722279     2.1977508128
 F     -6.9719041281    -1.8142420795     3.0070015450
 H     -3.0872237439    -2.8486087529     2.0365744209
 F     -3.5348009860    -3.3988848445     1.4554033313
 H     -0.7995537566    -0.0866499318     0.8623203564
 F     -0.4090133357    -0.6754715376     1.4468340826
 H     -5.1241866160    -3.1466625051     1.0446426095
 F     -6.0000663444    -2.9160099967     0.9013836770
 H     -3.1283059080     0.8715623835     3.6348778248
 F     -3.0027697080     1.1685682509     2.7764390225
 H     -4.0009879210    -0.6622134497     4.9277968668
 F     -3.6010039502     0.1533298908     5.0534586464
 H     -2.1368286817     0.5519937231    -0.9447871368
 F     -1.7855921974     0.8199443119    -0.1412173427
 H     -3.9732857525     0.2745475043     1.8123174244
 F     -4.5278197766    -0.3036964566     1.3662065213
          24
Energy: -95.58171800023666 Kcal/mole
 H     -3.8878506396     0.0514331891    -1.9382922754
 F     -3.0125037029     0.0157568972    -2.2091869828
 H     -1.4995059409    -1.3763163510     2.4767462159
 F     -2.2048709734    -1.7549956815     2.9239051759
 H     -5.1671999502    -0.0139764780    -0.1863910556
 F     -5.3020285951     0.1479103659    -1.0788611595
 H     -5.6770617849    -1.9383609522     4.0040084760
 F     -4.8727642639    -2.0132986071     4.4380347950
 H     -6.7308105819    -2.2130144069     2.2098200747
 F     -6.9784868614    -1.8471342306     3.0133604639
 H     -3.0743771779    -2.8564077891     2.0338540098
 F     -3.5354824666    -3.3984711236     1.4555476428
 H     -0.8069560962    -0.0703228248     0.8937861452
 F     -0.4077289526    -0.6623657290     1.4691050892
 H     -5.1199480159    -3.1258950235     1.0503917910
 F     -6.0002911924    -2.9171116636     0.9010786962
 H     -3.1169510659     0.8471558859     3.6446163049
 F     -2.9940538734     1.1362766570     2.7831092185
 H     -3.9928547236    -0.6648363205     4.9195238960
 F     -3.6014353976     0.1534690281     5.0538975084
 H     -2.1322578078     0.5713727501    -0.9304347125
 F     -1.7964059518     0.8339513992    -0.1185572686
 H     -3.9970150084     0.2713427623     1.8258324583
 F     -4.5575482908    -0.2958974694     1.3731405554
          24
Energy: -95.5680679729922 Kcal/mole
 H     -3.8958550844     0.0710772400    -1.9450359388
 F     -3.0204249147     0.0387879065    -2.2160865186
 H     -1.4988230146    -1.3951103378     2.4584276268
 F     -2.1918261114    -1.7714365189     2.9264172776
 H     -5.1196556203    -0.0168182647    -0.1674672992
 F     -5.2872158106     0.1441305504    -1.0545456844
 H     -5.6757253105    -1.9459859151     4.0003046813
 F     -4.8728351608    -2.0128941204     4.4382312728
 H     -6.7368607451    -2.2173004427     2.2099428402
 F     -6.9781659142    -1.8469068663     3.0133539515
 H     -3.0759830769    -2.8907222784     2.0674914307
 F     -3.5393796400    -3.4358256540     1.4938931956
 H     -0.8367048559    -0.0734225724     0.8958288402
 F     -0.4267059890    -0.6774889144     1.4507106146
 H     -5.1211418976    -3.1319114081     1.0488774442
 F     -6.0002278597    -2.9167925083     0.9011590288
 H     -3.1139220512     0.8367739600     3.6414867756
 F     -2.9942145557     1.1368273942     2.7832752328
 H     -4.0063508913    -0.6588907035     4.9235452397
 F     -3.6007194570     0.1531536268     5.0536841854
 H     -2.1461478803     0.5707064800    -0.9377298299
 F     -1.8018535826     0.8370386034    -0.1306253530
 H     -3.9938908662     0.2821793857     1.8321858435
 F     -4.5394128738    -0.2963248892     1.3754282017
          24
Energy: -95.55768585102997 Kcal/mole
 H     -3.8950921243     0.0569575996    -1.9571200517
 F     -3.0199282941     0.0384472079    -2.2303134553
 H     -1.4949411889    -1.3821201461     2.4751428663
 F     -2.1920320333    -1.7721256186     2.9255305727
 H     -5.1554061715    -0.0095797559    -0.1740176260
 F     -5.3058292288     0.1477894944    -1.0648020123
 H     -5.6881636890    -1.9410845735     3.9864686475
 F     -4.8899888996    -2.0328052176     4.4285018239
 H     -6.7280456889    -2.2037332648     2.2076050221
 F     -6.9792228621    -1.8187432899     3.0010668970
 H     -3.0595790992    -2.8830009036     2.0374984758
 F     -3.5338212956    -3.4183164506     1.4635467319
 H     -0.8311161200    -0.0807077068     0.8839816509
 F     -0.4270024585    -0.6771024549     1.4513390806
 H     -5.1206765921    -3.1287572539     1.0506542049
 F     -6.0002525431    -2.9169598289     0.9010647758
 H     -3.1230090124     0.8350559215     3.6395638718
 F     -2.9937325134     1.1369185322     2.7833772384
 H     -3.9894071062    -0.6861917020     4.9358834621
 F     -3.5679028945     0.1190275254     5.0577243230
 H     -2.1608761754     0.5527549996    -0.9343227968
 F     -1.8170637762     0.8180115717    -0.1266588907
 H     -3.9825546597     0.2782060798     1.8234241483
 F     -4.5400142333    -0.2961141145     1.3758929894
          24
Energy: -95.54842135714487 Kcal/mole
 H     -3.8866398315     0.0843058380    -1.9471488050
 F     -3.0169450086     0.0337882367    -2.2334491489
 H     -1.4896983686    -1.3796598269     2.4636549949
 F     -2.1829145180    -1.7633330463     2.9253207083
 H     -5.1100584032     0.0448040096    -0.1535987147
 F     -5.2678915462     0.2183133368    -1.0400930532
 H     -5.6729124539    -1.9067724367     3.9691531870
 F     -4.8672350097    -2.0028163150     4.3964100526
 H     -6.7535766194    -2.2006981105     2.1964397278
 F     -6.9821797007    -1.7959092053     2.9868671902
 H     -3.0635112414    -2.8479901203     2.0328995582
 F     -3.5291049762    -3.3802866387     1.4491428531
 H     -0.8278188822    -0.0730011307     0.8898310732
 F     -0.4271773694    -0.6775112709     1.4510287823
 H     -5.1074855753    -3.1037276808     1.0390049690
 F     -5.9943600563    -2.9147633360     0.9024944151
 H     -3.1133427017     0.8539376843     3.6463652873
 F     -2.9845828588     1.1718555540     2.7959312034
 H     -3.9860495126    -0.6745969540     4.8750199912
 F     -3.5820643986     0.1317101902     5.0410134156
 H     -2.1336852257     0.5467452001    -0.9433650432
 F     -1.8185061932     0.8183303777    -0.1261792205
 H     -3.9846277222     0.3071232701     1.8332823099
 F     -4.5296982930    -0.2745592224     1.3800356324
          24
Energy: -95.53937125383364 Kcal/mole
 H     -3.8696173095     0.0659518533    -1.9567644625
 F     -3.0017153560     0.0050127079    -2.2464567469
 H     -1.4701996499    -1.3831851361     2.4733887750
 F     -2.1590122783    -1.7734749616     2.9360982033
 H     -5.1042527407     0.0378910409    -0.1823067910
 F     -5.2638107307     0.2083224515    -1.0690893924
 H     -5.6732582051    -1.9072517314     3.9696982243
 F     -4.8672166684    -2.0027908895     4.3963811396
 H     -6.7028266472    -2.1596768052     2.1826952329
 F     -6.9649011608    -1.7880362916     2.9789924625
 H     -3.0459481697    -2.8391913955     2.0386399118
 F     -3.5104320933    -3.3677607574     1.4506279099
 H     -0.8232422655    -0.0745838083     0.8646874219
 F     -0.4091713112    -0.6559850857     1.4403668462
 H     -5.0881811479    -3.0894126792     1.0330974516
 F     -5.9590140091    -2.8538912338     0.8685715370
 H     -3.1089131989     0.8696871478     3.6386740806
 F     -2.9851365837     1.1780409956     2.7839891948
 H     -3.9670592574    -0.6817050862     4.9053916560
 F     -3.5665108536     0.1332417279     5.0331087896
 H     -2.1456850693     0.5363896299    -0.9581577438
 F     -1.8290397290     0.8023905021    -0.1397029409
 H     -3.9619258422     0.2907959944     1.8259645520
 F     -4.5309025753    -0.2736930982     1.3804238225
          24
Energy: -95.54611801059578 Kcal/mole
 H     -3.8738868223     0.0616634905    -1.9689918870
 F     -3.0014888682     0.0052401957    -2.2458081103
 H     -1.4613095262    -1.3899348461     2.4811399053
 F     -2.1594838788    -1.7731169051     2.9356870238
 H     -5.1202907955     0.0589854857    -0.1686558259
 F     -5.2614420470     0.2155771637    -1.0610931461
 H     -5.6740324028    -1.8985873251     3.9732094019
 F     -4.8671755990    -2.0032505163     4.3961948798
 H     -6.7122869583    -2.1551398962     2.1775545256
 F     -6.9643993132    -1.7882769642     2.9792651652
 H     -3.0450641060    -2.8304929470     2.0053476601
 F     -3.5007314796    -3.3453488568     1.3985695814
 H     -0.8018148883    -0.0790739960     0.8809653704
 F     -0.3919767241    -0.6567782489     1.4633565407
 H     -5.0808345421    -3.0838753017     1.0251870216
 F     -5.9616753709    -2.8821493008     0.8692541678
 H     -3.1192975063     0.8721083574     3.6379733927
 F     -2.9845857202     1.1779125560     2.7840263647
 H     -3.9948366600    -0.6640662588     4.9007453079
 F     -3.5970183940     0.1511848767     5.0348915467
 H     -2.1533063530     0.5094510041    -0.9488343749
 F     -1.8351683552     0.7857645333    -0.1343848382
 H     -3.9646955647     0.2956104347     1.8233573521
 F     -4.5307556479    -0.2739484931     1.3805621284
          24
Energy: -95.55277602838028 Kcal/mole
 H     -3.8776863886     0.1015079494    -1.9887365056
 F     -3.0046391598     0.0712418231    -2.2675939922
 H     -1.4666178588    -1.3751668876     2.4857456137
 F     -2.1592022841    -1.7739003112     2.9354427016
 H     -5.1276522017     0.0533922949    -0.1685233671
 F     -5.2610515414     0.2158738696    -1.0611001728
 H     -5.6668475858    -1.9049491143     3.9583205793
 F     -4.8675567369    -2.0029130381     4.3969846974
 H     -6.7287842278    -2.1768663132     2.1828156043
 F     -6.9635241711    -1.7871244279     2.9789860771
 H     -3.0355710547    -2.8322813824     1.9996268661
 F     -3.5012350640    -3.3452539844     1.3988730563
 H     -0.8098197308    -0.0648701397     0.8793402833
 F     -0.3989011850    -0.6306928646     1.4725346804
 H     -5.0989158326    -3.1289146430     1.0347597020
 F     -5.9894879699    -2.9445370231     0.9173920677
 H     -3.1191507382     0.8774451663     3.6398878588
 F     -2.9845935059     1.1776294506     2.7839248067
 H     -4.0141595672    -0.6589387012     4.9017809008
 F     -3.6113656092     0.1524639959     5.0441595879
 H     -2.1498757004     0.5493725347    -0.9625587028
 F     -1.8353503434     0.7836467884    -0.1336567943
 H     -3.9951565238     0.3108514811     1.8256176954
 F     -4.5749675601    -0.2559714394     1.3973421544
          24
Energy: -95.5610054638147 Kcal/mole
 H     -3.8769941983     0.1142426749    -1.9882591158
 F     -3.0046758789     0.0705662753    -2.2676193166
 H     -1.4616880206    -1.3468616868     2.4974970090
 F     -2.1628611314    -1.7492416696     2.9303198574
 H     -5.1172490390     0.0600342237    -0.1689590664
 F     -5.2616034052     0.2155215306    -1.0610770599
 H     -5.6824803121    -1.9247719515     3.9694112269
 F     -4.8729358989    -2.0145597578     4.3906771676
 H     -6.7285299240    -2.1957931617     2.1850411727
 F     -6.9745921923    -1.8096226019     2.9795313607
 H     -3.0340821854    -2.7945809967     1.9827786277
 F     -3.5017151985    -3.3126497450     1.3879566905
 H     -0.7805823950    -0.0448888423     0.8999991866
 F     -0.3818782363    -0.5987280626     1.5125235632
 H     -5.1116343121    -3.1157032292     1.0269966149
 F     -5.9997009989    -2.9301821041     0.8935482280
 H     -3.0982495293     0.8559322843     3.6378061458
 F     -2.9616561880     1.1491017417     2.7797368430
 H     -4.0170573968    -0.6581950044     4.9058345639
 F     -3.6112118860     0.1524245445     5.0439445505
 H     -2.1189907393     0.5555171003    -0.9734432322
 F     -1.7775474362     0.8040399662    -0.1594764910
 H     -3.9967620708     0.3034717911     1.8373198742
 F     -4.5748823895    -0.2555799639     1.3967213809
          24
Energy: -95.55496604009748 Kcal/mole
 H     -3.8645754702     0.0904513514    -1.9852581951
 F     -2.9932212752     0.0525944628    -2.2684502198
 H     -1.4629145895    -1.3537053277     2.4892884503
 F     -2.1627960648    -1.7488786303     2.9307553025
 H     -5.1129200103     0.0585269599    -0.1699352151
 F     -5.2618330501     0.2156014875    -1.0610252775
 H     -5.6902285014    -1.9039088131     3.9823744653
 F     -4.8855878911    -1.9893644485     4.4138137110
 H     -6.7252118169    -2.2026149294     2.1894355552
 F     -6.9747682102    -1.8092607229     2.9792982488
 H     -3.0536335119    -2.8284218940     2.0007627248
 F     -3.5148048402    -3.3525108458     1.4061697745
 H     -0.7955763604    -0.0431235087     0.9116682336
 F     -0.3810828411    -0.5988217094     1.5119045472
 H     -5.1146160225    -3.1352636713     1.0353817830
 F     -6.0005608275    -2.9403203649     0.9012627693
 H     -3.0918709496     0.8485256864     3.6362308306
 F     -2.9619945569     1.1494946446     2.7798204099
 H     -4.0261234570    -0.6552721298     4.9160652910
 F     -3.6107309525     0.1522694927     5.0434018340
 H     -2.1095624705     0.5571476284    -0.9778244095
 F     -1.7780475840     0.8039534705    -0.1592440796
 H     -3.9915198864     0.2954948610     1.8404424384
 F     -4.5751604753    -0.2551568062     1.3965557361
          24
Energy: -95.53507381844716 Kcal/mole
 H     -3.8654551970     0.0808759463    -1.9868616865
 F     -2.9931746077     0.0531024160    -2.2683651583
 H     -1.4951096208    -1.3302614700     2.4846038319
 F     -2.1950871828    -1.7333012427     2.9187459220
 H     -5.1175481198     0.0650339377    -0.1680545602
 F     -5.2615875396     0.2152563073    -1.0611250419
 H     -5.6780189401    -1.9097122363     3.9880685090
 F     -4.8714137121    -2.0109731577     4.4123599559
 H     -6.7237066110    -2.1810858800     2.1833362333
 F     -6.9717044941    -1.7787848810     2.9691733387
 H     -3.0727223832    -2.8111633293     1.9997687846
 F     -3.5137922196    -3.3534263728     1.4062225007
 H     -0.7794060197    -0.0304012092     0.9126522865
 F     -0.3819406403    -0.5994965980     1.5118523454
 H     -5.1138588439    -3.1330208142     1.0336057500
 F     -6.0006009940    -2.9404393433     0.9013569837
 H     -3.1129799301     0.8457462235     3.6371459271
 F     -2.9662124243     1.1556097923     2.7866561459
 H     -4.0043806498    -0.6658439808     4.9146068796
 F     -3.6118843582     0.1528303050     5.0434791994
 H     -2.0996079312     0.5643579447    -0.9839088290
 F     -1.7785756493     0.8035709799    -0.1589213152
 H     -4.0031506150     0.3116410878     1.8352029809
 F     -4.5745434920    -0.2560133262     1.3968336772
          24
Energy: -95.55251224119225 Kcal/mole
 H     -3.8568620103     0.1091053642    -1.9771968954
 F     -2.9872847304     0.0569468525    -2.2635600286
 H     -1.4874173300    -1.3398501041     2.4883044761
 F     -2.1954952410    -1.7327925879     2.9185496114
 H     -5.0972416637     0.0562080755    -0.1709949305
 F     -5.2343065739     0.2157736548    -1.0635424286
 H     -5.6711860757    -1.8955429878     3.9609146091
 F     -4.8722253232    -1.9888693280     4.4011882855
 H     -6.7093289970    -2.1878217679     2.1796174958
 F     -6.9655628621    -1.8069085673     2.9734300303
 H     -3.0747083844    -2.8170115800     2.0065133628
 F     -3.5136868669    -3.3531161366     1.4058647165
 H     -0.7872938089    -0.0122823863     0.9050259354
 F     -0.3916470145    -0.5869083293     1.5001373870
 H     -5.0916634753    -3.1087648723     1.0024882281
 F     -5.9778459378    -2.9090998031     0.8771746083
 H     -3.1745043106     0.9006921510     3.6452492253
 F     -3.0628603059     1.2107004704     2.7894925671
 H     -4.0155538994    -0.6517574140     4.9009715799
 F     -3.6154272067     0.1589834710     5.0542257712
 H     -2.1173343427     0.5550180246    -0.9615730961
 F     -1.7865795641     0.8183296520    -0.1478426350
 H     -4.0271718057     0.3125322385     1.8431436304
 F     -4.5738123453    -0.2686954815     1.3912061812
          24
Energy: -95.57012813773014 Kcal/mole
 H     -3.8566668528     0.0959368696    -1.9691430769
 F     -2.9885692660     0.0630405194    -2.2627642782
 H     -1.4771548220    -1.3414173558     2.4858105370
 F     -2.1798027911    -1.7327459429     2.9263065851
 H     -5.0975876681     0.0292773753    -0.1762002390
 F     -5.2342882192     0.2172022662    -1.0632662990
 H     -5.6709533411    -1.9059778930     3.9584180814
 F     -4.8722376692    -1.9883157803     4.4013207206
 H     -6.7184764766    -2.1944570632     2.1799335264
 F     -6.9650776095    -1.8065565802     2.9734132656
 H     -3.0719105146    -2.8218076370     2.0251815586
 F     -3.5335047695    -3.3709571496     1.4539945869
 H     -0.7929069480    -0.0163765022     0.9048472578
 F     -0.3913492505    -0.5866911459     1.5001468655
 H     -5.1142416955    -3.1189850283     1.0331347885
 F     -5.9972375731    -2.9193767697     0.8869711020
 H     -3.1303108243     0.8619544654     3.6286695725
 F     -3.0132675377     1.1755697609     2.7749510501
 H     -4.0196196086    -0.6536638041     4.9234819045
 F     -3.6152115302     0.1590846006     5.0530316505
 H     -2.1158560925     0.5768767024    -0.9689017860
 F     -1.7866579819     0.8171700997    -0.1474538649
 H     -4.0022240400     0.2800841144     1.8319273125
 F     -4.5532967482    -0.3004195663     1.3844640771
          24
Energy: -95.57058767148447 Kcal/mole
 H     -3.8686259223     0.0587242179    -1.9699841045
 F     -2.9941582223     0.0157508523    -2.2426533758
 H     -1.4769577378    -1.3459534303     2.4821359272
 F     -2.1798132460    -1.7325053146     2.9265015147
 H     -5.1138109354     0.0403796834    -0.1677518189
 F     -5.2530481467     0.2109387753    -1.0579268552
 H     -5.6755195468    -1.9182520811     3.9646204064
 F     -4.8719954425    -1.9876646630     4.4009917015
 H     -6.7129973949    -2.2161195371     2.1699032861
 F     -6.9704630696    -1.8509141958     2.9706688480
 H     -3.0689398890    -2.8346121737     2.0461459665
 F     -3.5310795638    -3.3667890291     1.4595424244
 H     -0.8065565185    -0.0216350848     0.9092228378
 F     -0.3906251723    -0.5864121902     1.4999147511
 H     -5.1188652863    -3.1228816662     1.0310608651
 F     -5.9953877663    -2.9076916792     0.8689170660
 H     -3.1489948470     0.8587278093     3.6482362727
 F     -3.0257540628     1.1672054944     2.7935186428
 H     -4.0192516973    -0.6519518523     4.9121294997
 F     -3.6152310471     0.1589937855     5.0536338693
 H     -2.1195699620     0.5401201111    -0.9556742767
 F     -1.7864609697     0.8191199519    -0.1481555537
 H     -4.0159630809     0.2994104581     1.8332794916
 F     -4.5711854966    -0.2754084214     1.3836125872
          24
Energy: -95.57004880259487 Kcal/mole
 H     -3.8682740203     0.0716905730    -1.9712269360
 F     -2.9941768899     0.0150630172    -2.2425874465
 H     -1.4801148222    -1.3380170133     2.4841373962
 F     -2.1796457699    -1.7329263232     2.9263953414
 H     -5.1013687875     0.0233539804    -0.1732409623
 F     -5.2537081739     0.2118419495    -1.0576356688
 H     -5.6796333407    -1.9163324136     3.9726025531
 F     -4.8717772153    -1.9877664970     4.4005682671
 H     -6.7225173017    -2.2224563433     2.1692494900
 F     -6.9750283157    -1.8511728849     2.9687967252
 H     -3.0679676619    -2.8186038211     2.0304036625
 F     -3.5311311382    -3.3676382352     1.4603775173
 H     -0.7934299231    -0.0162349971     0.9134306558
 F     -0.3903496029    -0.5740085963     1.5194866495
 H     -5.1129289457    -3.1013431829     1.0258457243
 F     -5.9957026754    -2.9088342459     0.8691937171
 H     -3.1886033962     0.8973725485     3.6575172702
 F     -3.0754451558     1.2000646029     2.7993437837
 H     -4.0159212250    -0.6330961596     4.9144945576
 F     -3.6250167237     0.1826743049     5.0648315798
 H     -2.1223070810     0.5491786175    -0.9576140860
 F     -1.7863157718     0.8186394191    -0.1480526513
 H     -4.0006708158     0.2853901465     1.8303682292
 F     -4.5358813879    -0.3004380490     1.3707553823
          24
Energy: -95.56371943067104 Kcal/mole
 H     -3.8808025922     0.0859185847    -1.9611785078
 F     -3.0111398258     0.0127887926    -2.2426526742
 H     -1.4820327862    -1.3276723091     2.4905211906
 F     -2.1795440264    -1.7334750859     2.9260566958
 H     -5.1235686255     0.0264893728    -0.1701122203
 F     -5.2598483359     0.2204595484    -1.0559408784
 H     -5.6874407895    -1.9338452788     3.9931230970
 F     -4.8859206820    -1.9795847058     4.4362510943
 H     -6.7338075477    -2.2584517742     2.2084077636
 F     -6.9897371186    -1.9017206989     3.0134742172
 H     -3.0756340709    -2.8223254279     2.0400641228
 F     -3.5307244530    -3.3674408126     1.4598650522
 H     -0.8016535131    -0.0076134535     0.9017343529
 F     -0.3954062967    -0.5621367888     1.5086577993
 H     -5.1052467761    -3.1158875545     1.0363355626
 F     -5.9863640972    -2.9130219171     0.8834735347
 H     -3.1579008943     0.9014902030     3.6362020161
 F     -3.0353226555     1.1910993983     2.7748135501
 H     -4.0313963926    -0.6070413739     4.9171865320
 F     -3.6234015494     0.2042375553     5.0446844025
 H     -2.1353668602     0.5392717919    -0.9660634060
 F     -1.7907227605     0.8236138963    -0.1652769100
 H     -4.0053564064     0.2924796605     1.8143995048
 F     -4.5417763891    -0.3013661988     1.3666387455
          24
Energy: -95.58275122139966 Kcal/mole
 H     -3.8760933712     0.0868655817    -1.9699903239
 F     -3.0076625333     0.0292633168    -2.2587789296
 H     -1.4896550033    -1.3272097710     2.4755434663
 F     -2.1862507201    -1.7217412731     2.9227439819
 H     -5.1101934636     0.0296061459    -0.1716008560
 F     -5.2605578573     0.2202942108    -1.0558619097
 H     -5.6738878774    -1.9294172347     3.9805815181
 F     -4.8665394836    -1.9618984374     4.4141971803
 H     -6.7443350046    -2.2559912144     2.2040596133
 F     -6.9891786614    -1.9018512259     3.0137048765
 H     -3.0689452665    -2.8180055208     2.0306204716
 F     -3.5310792786    -3.3676699737     1.4603660160
 H     -0.7958597709    -0.0287933554     0.8913530657
 F     -0.3977361056    -0.5920411999     1.4956199047
 H     -5.1030471549    -3.1045380220     1.0382458760
 F     -5.9864807820    -2.9136239836     0.8833721970
 H     -3.1612143012     0.9158723033     3.6217726866
 F     -3.0483624117     1.2068983142     2.7595329798
 H     -4.0177576080    -0.6122820168     4.9081106381
 F     -3.6241250554     0.2045155593     5.0451658577
 H     -2.1058054175     0.5511912489    -0.9856911547
 F     -1.7556526406     0.8209962795    -0.1822689255
 H     -4.0097245512     0.2897346121     1.8231518315
 F     -4.5415446691    -0.3012205804     1.3661744548
          24
Energy: -95.57906503091856 Kcal/mole
 H     -3.8772454441     0.1045456361    -1.9747761279
 F     -3.0061264034     0.0380919911    -2.2533879186
 H     -1.4860447548    -1.3394889970     2.4705561955
 F     -2.1864422355    -1.7210898885     2.9230085451
 H     -5.1066289901     0.0246412805    -0.1733016003
 F     -5.2607469444     0.2205575854    -1.0557716892
 H     -5.6833179780    -1.9448079827     4.0042858290
 F     -4.8777832538    -1.9862176581     4.4405060106
 H     -6.7301941502    -2.2585000964     2.2095873206
 F     -6.9899288010    -1.9017181355     3.0134116444
 H     -3.0748230977    -2.8143890496     2.0318525945
 F     -3.5307674732    -3.3678618191     1.4603006548
 H     -0.7923578369    -0.0486892615     0.8654353713
 F     -0.3984728775    -0.6294981365     1.4556935262
 H     -5.1158052504    -3.1517558957     1.0322211202
 F     -6.0024967457    -2.9645639981     0.8921269177
 H     -3.1662895803     0.9208210540     3.6227474770
 F     -3.0480931798     1.2066357944     2.7594812694
 H     -4.0356774153    -0.6105023572     4.9002741471
 F     -3.6443388405     0.2081794408     5.0325739337
 H     -2.1154542735     0.5637784482    -0.9873057078
 F     -1.7659867550     0.8370814400    -0.1847679029
 H     -4.0018251311     0.2864422185     1.8181025657
 F     -4.5419637151    -0.3010459265     1.3664423067
          24
Energy: -95.57015641518703 Kcal/mole
 H     -3.8716684184     0.0801475773    -1.9535542489
 F     -3.0064222517     0.0393862517    -2.2545136902
 H     -1.4867024770    -1.3318418679     2.4760918882
 F     -2.1864073448    -1.7214955510     2.9227148894
 H     -5.1143194150     0.0284612506    -0.1711571848
 F     -5.2603389851     0.2203549448    -1.0558854454
 H     -5.6797310233    -1.9388256898     3.9983314810
 F     -4.8779735335    -1.9865350049     4.4408218750
 H     -6.7531898474    -2.2763286833     2.2106254744
 F     -6.9887089324    -1.9007723701     3.0133565727
 H     -3.0661986037    -2.8097284935     2.0202468247
 F     -3.5312249827    -3.3681090508     1.4609163140
 H     -0.8030491038    -0.0347166180     0.8718446087
 F     -0.4024721725    -0.5966536053     1.4757104419
 H     -5.1186915700    -3.1588351842     1.0405497509
 F     -6.0023436331    -2.9641884582     0.8916851031
 H     -3.1550426679     0.9080172522     3.6143509200
 F     -3.0109952451     1.1832779899     2.7515816193
 H     -4.0557734370    -0.5933776370     4.9088398227
 F     -3.6596471393     0.2244990899     5.0315207740
 H     -2.1165439521     0.5771818983    -0.9912667897
 F     -1.7659289501     0.8363704180    -0.1845577767
 H     -3.9974725685     0.2833387370     1.8168991455
 F     -4.5421946085    -0.3008812940     1.3665061454
          24
Energy: -95.57628954208941 Kcal/mole
 H     -3.8735626749     0.0921154938    -1.9609742475
 F     -3.0063217658     0.0387513814    -2.2541200765
 H     -1.4930326650    -1.3492229843     2.4520929762
 F     -2.1860715430    -1.7205735230     2.9239879762
 H     -5.1057275741     0.0257442698    -0.1732153687
 F     -5.2607947624     0.2204990744    -1.0557762635
 H     -5.6903430396    -1.9481057877     4.0172200430
 F     -4.8774105905    -1.9860427171     4.4398198804
 H     -6.7454372409    -2.2586283093     2.2164234951
 F     -7.0015983875    -1.8981589569     3.0197492777
 H     -3.0709213412    -2.8206787874     2.0347725046
 F     -3.5309744524    -3.3675281630     1.4601457603
 H     -0.8031847327    -0.0612470588     0.8472999036
 F     -0.4172932817    -0.6611477056     1.4235776161
 H     -5.1101310316    -3.0940054633     1.0447055265
 F     -5.9926705462    -2.8920929462     0.8989511413
 H     -3.1586580702     0.9084761860     3.6151050554
 F     -3.0200942596     1.1884009605     2.7529384874
 H     -4.0424307091    -0.6128996719     4.9016512214
 F     -3.6548361539     0.2086726935     5.0268642770
 H     -2.1097634563     0.5615746184    -0.9890069481
 F     -1.7662886397     0.8371983481    -0.1846776561
 H     -3.9849122904     0.2814657586     1.8037470369
 F     -4.5428609022    -0.3007819368     1.3672038343
          24
Energy: -95.57722815584663 Kcal/mole
 H     -3.8779790864     0.0901418542    -1.9740285676
 F     -3.0060874853     0.0388560784    -2.2534275749
 H     -1.4879908731    -1.3500271203     2.4589461850
 F     -2.1863389984    -1.7205308654     2.9236244293
 H     -5.1250794170     0.0243450450    -0.1882409698
 F     -5.2759542741     0.2194805591    -1.0714441790
 H     -5.6924751673    -1.9172186896     4.0250855250
 F     -4.8850410789    -1.9732406330     4.4561316186
 H     -6.7420025116    -2.2137883680     2.2107702625
 F     -6.9945561157    -1.8474753499     3.0125934660
 H     -3.0780138446    -2.8171414646     2.0370223235
 F     -3.5305982115    -3.3677158098     1.4600264126
 H     -0.8174495562    -0.0697673645     0.8482354952
 F     -0.4165365657    -0.6606957231     1.4235279852
 H     -5.1047460335    -3.1069997105     1.0429055736
 F     -5.9858563457    -2.9000163284     0.8956252380
 H     -3.1547614518     0.8936331414     3.6107567575
 F     -3.0203009662     1.1891883497     2.7531691546
 H     -4.0554919829    -0.6077353850     4.9092708600
 F     -3.6541432836     0.2083987400     5.0264600727
 H     -2.1218623374     0.5661835514    -0.9853009787