          24
Energy: -78.27610532729015 Kcal/mole
 H      0.6316692671    -1.4069970596    -2.5403745171
 F     -2.963405E-40    -1.6418624100    -3.1619424844
 H      1.0453992971     1.5147772528     3.5957491801
 F      0.8755162654     1.4641429097     2.6960464965
 H     -0.0084994130     0.8071891564     5.5631252970
 F      0.5868791814     1.4675525848     5.3387740731
 H     -0.6052302299    -2.5346076824     2.7395433405
 F     -1.1317821572    -3.2562208035     2.9466823548
 H      2.5666078771     0.3662456987    -0.7979495925
 F      1.9621538341    -0.1637927560    -1.2390658430
 H      4.6090185133     1.3474000688    -0.9582506432
 F      3.9575427939     1.2285907602    -0.3239378377
 H      0.9597862134    -1.7393438717    -4.5726848899
 F      1.6909040291    -1.6287606759    -5.1150197462
 H     -2.3686260513    -2.8313615677     3.8096031728
 F     -2.9689613155    -2.3847558394     4.3397257002
 H      2.9120354204    -0.4287402165    -4.4580829938
 F      3.6244607622     0.0824867769    -4.1897807507
 H     -2.1687689510    -0.9453719924     4.8413082831
 F     -1.4681493483    -0.4642320428     5.1855836396
 H      0.5814978581    -0.2927128718     2.7599190249
 F      0.4675013832    -1.2017017898     2.8003288077
 H      5.2172648442     0.7119722723    -3.4751731861
 F      5.6867239554     0.8590551000    -2.7013102883
          24
Energy: -80.58495050368897 Kcal/mole
 H     -0.6229366219     5.0512562342    -5.0071223568
 F     -1.0870568681     4.5739818666    -5.6377494853
 H      3.6110251725     2.3896621241     4.8712789099
 F      4.0266119983     3.1959075921     4.7365761429
 H      2.3444734780     0.1066593938     3.8747531361
 F      2.9967432365     0.5847543729     4.3070242930
 H      2.7742707240     3.5423223931     0.7928978006
 F      2.3642289864     3.0930320203     0.1066814104
 H      2.1275932132     4.4534229583    -4.4555068381
 F      1.3822800058     4.9429341128    -4.6694602271
 H      3.0912842729     2.3331488962    -4.6958130502
 F      3.1999683328     3.1321927506    -4.2592289302
 H     -0.8402293951     3.3561951330    -6.7465465267
 F     -0.6694925256     2.5869564339    -7.2155984909
 H      1.0991191455     1.9699263367     0.3186268449
 F      0.4340300304     1.4900702995     0.7288507503
 H      0.9737671289     2.2266874631    -7.4504570629
 F      1.8853212639     2.1636351472    -7.3731106695
 H      0.7242818537     0.2853925741     1.8886517576
 F      1.0235585545    -0.1568479870     2.6341353204
 H      4.0251846160     3.3055459237     3.0419248564
 F      3.7011366638     3.5683454800     2.2253354137
 H      2.7517879796     1.3163719371    -6.3020659084
 F      3.1299778302     1.0803764907    -5.5007123121
          24
Energy: -74.93410959915208 Kcal/mole
 H      0.7142391697    -0.2749393713    -4.7416099133
 F      0.1156403994    -0.8944874316    -4.4273986576
 H      3.7777792227     3.2662531108     5.9519495233
 F      4.2441914930     2.8991153574     5.2529799502
 H      1.0453057624     3.5986447504     6.0310373659
 F      1.8652683596     3.8354750670     6.3663905236
 H      1.9004496112     2.6636929329     2.3842989920
 F      1.1367927429     3.1473610201     2.2300836590
 H     -1.1876004349     2.8982238599    -5.7693607669
 F     -1.4530923564     3.2847242590    -6.5574092940
 H      2.3455738475     0.3292102760    -5.6154063048
 F      1.5944964067     0.7868337058    -5.3558827521
 H      0.6120398434    -1.5937233891    -3.1873107293
 F      1.0911339271    -1.9136057711    -2.4738451586
 H     -0.6047769309     3.6922440471     2.6510705306
 F     -1.3123353477     3.7779156938     3.2280544609
 H      2.9399597332    -1.7575824836    -2.6830039674
 F      3.6919298693    -1.4037282028    -3.0705824272
 H     -0.7079167031     3.5384151050     4.7672094181
 F     -0.4014490312     3.2515171910     5.5824738862
 H      3.6256017074     2.3832676334     3.7458588421
 F      3.2311066078     2.0840761890     2.9740122926
 H      4.0098442246    -1.1994665813    -4.8605548017
 F      3.6761897202    -0.8625161053    -5.6454293448
          24
Energy: -75.60806603471543 Kcal/mole
 H      2.9532170330    -0.7158800035    -6.8945565921
 F      2.7444837273    -1.4355164506    -7.4231800793
 H     -0.8826294832     4.1900472721     4.1315040053
 F     -1.6825282380     4.1961724004     4.5798492572
 H      1.4080988289     3.2034036442     4.5194858327
 F      1.2609021275     4.0999579531     4.3953387332
 H     -3.8901176103     1.1419578575     2.3417070341
 F     -3.3365741740     0.5840740701     2.8141944349
 H     -4.7169628827     2.8523930951     2.6094634725
 F     -4.9760812968     2.3484840296     1.8884764399
 H      4.0758993568    -0.0228275419    -5.1465698088
 F      4.2320851779     0.2446045732    -6.0096891824
 H      2.8174560050    -3.1591509542    -6.9221971004
 F      3.0037131227    -3.9476417511    -6.4926862746
 H     -1.5009010317     0.2822418150     3.3489708104
 F     -0.6647718516     0.5040276472     3.0446879834
 H      2.9565923998    -3.8334240733    -4.9513184231
 F      2.7488235662    -3.5877112527    -4.0926297009
 H      0.7388745192     1.1560516530     3.9570117651
 F      1.3834129591     1.5088711603     4.5056260145
 H     -3.1642714580     4.5527695935     3.8876582030
 F     -3.9060030454     4.1619401100     3.5162075777
 H      3.2840214909    -2.0826657188    -3.8039209097
 F      3.6753188797    -1.2550414542    -3.7508791308
          24
Energy: -80.0029829514872 Kcal/mole
 H      2.6754592970    -3.9039674173    -7.4746832673
 F      3.1723800697    -4.6742267083    -7.4490050612
 H     -6.4756729863     1.2929859017     4.1153855369
 F     -7.1007923154     1.4498846779     3.4630837674
 H     -5.3983754494    -0.0745666722     5.1279444303
 F     -5.3184519576     0.8357138192     5.0511937787
 H     -5.8626543441    -1.7851076131    -0.0658551058
 F     -5.5850415871    -2.4987409115     0.4386720715
 H     -6.4180445952     0.3016141151    -0.3287599041
 F     -6.2420201306    -0.3603485101    -0.9384400420
 H      0.6057347348    -3.1479735716    -7.0084835289
 F      1.4342280971    -2.9181911483    -7.3273687537
 H      2.4011382434    -6.5884008941    -6.7848326763
 F      1.8432889991    -7.2428482017    -6.4664116621
 H     -5.8988097757    -2.9792043566     2.0295317982
 F     -6.1795525884    -3.2333945721     2.8646723897
 H      0.4323386942    -6.7022835832    -5.9044272800
 F     -0.3621013279    -6.5715549744    -5.4654921115
 H     -5.7695250659    -2.6522875717     4.4536517235
 F     -5.4209085375    -2.2130233046     5.1791876769
 H     -7.1233281718     1.3880254726     1.6045268071
 F     -6.9425213952     1.4205233803     0.7061161017
 H     -0.8434555991    -5.0176917198    -6.1889166090
 F     -0.5602873130    -4.2368537958    -6.5774997509
          24
Energy: -81.1799834301554 Kcal/mole
 H      0.3870768109    -1.1815563684    -6.3257586203
 F     -0.1699782283    -1.4467714148    -7.0041682772
 H     -1.4621943355     0.0902390788     6.4717347673
 F     -1.7860295047     0.5816313126     7.1749797145
 H     -0.7695436223    -1.9220496465     5.9233578902
 F     -0.9520124653    -1.1114793451     5.5353245051
 H     -5.2000004664    -2.3683635785     6.4106218415
 F     -4.6279915551    -2.9600673972     6.0061698713
 H     -5.4154341656    -0.4604437622     7.2998011105
 F     -5.9678752049    -1.1908772980     7.2532742603
 H      0.6526762708    -0.4258253086    -4.3387216688
 F      1.0624151985    -0.8937014587    -5.0125873226
 H     -1.5182277423    -2.4686878141    -6.1415421392
 F     -2.1882991052    -2.8388300190    -5.6366776854
 H     -3.8014100062    -4.4045927249     5.9131716411
 F     -3.1815005817    -4.9645984497     5.5350249850
 H     -2.7347942792    -2.2140711022    -4.2466320068
 F     -2.6911751204    -1.7606897504    -3.4507477697
 H     -1.3023799140    -4.4215553083     6.2104591078
 F     -0.6521430629    -3.7918861340     6.3574209000
 H     -3.3142989634     0.7699279391     7.4110689886
 F     -4.2293691217     0.7127648506     7.4274392859
 H     -1.2068901936    -0.8296745955    -3.0974650863
 F     -0.4745921039    -0.2779541453    -3.1127311491
          24
Energy: -77.20112124861018 Kcal/mole
 H     -0.9761842425    -2.2671916364    -6.8381097558
 F     -1.7405232543    -2.7475924144    -6.6772061591
 H     -2.6846490333     1.2547980975     2.6833405952
 F     -3.4157595136     1.0601545756     2.1651896857
 H     -1.4754973625     0.6049758652     4.4637683166
 F     -1.3708735022     1.3370061779     3.9214819816
 H     -6.0265941670    -2.4045657971     4.2408415536
 F     -5.5347571652    -3.1303785745     4.5095070998
 H     -6.7481101773    -0.7024807843     2.7418960104
 F     -6.9443730308    -1.3504306401     3.3603868161
 H     -0.5230529133    -1.1126276891    -5.0936090626
 F      0.0137323659    -1.0762549099    -5.8361907652
 H     -3.3499334339    -2.2419306868    -7.3453399602
 F     -4.1784651632    -1.8710721255    -7.2153857333
 H     -3.5532146712    -2.8628231579     4.4260449000
 F     -2.8673549405    -2.5164432351     3.9255387773
 H     -3.8976461021    -1.0382767944    -5.8370013709
 F     -3.5741473940    -0.5380448621    -5.1398603523
 H     -1.6780470503    -1.5119449004     4.8379639831
 F     -1.2691549121    -0.8424171233     5.3127573856
 H     -5.3823286581     0.8119431018     1.4649534022
 F     -6.2855160572     0.7404109267     1.6064619532
 H     -2.5710138307    -1.1846245547    -3.9298434130
 F     -1.7521738829    -1.2853906329    -3.5295481003
          24
Energy: -73.45410268369196 Kcal/mole
 H      0.8750045729    -4.8389024161    -3.9846299929
 F      0.9780566267    -5.5358124121    -3.3976157413
 H     -1.1235598991     1.4119087292     1.6612083743
 F     -1.1819719378     2.2479094789     2.0334714267
 H     -0.9100289920    -1.0564892693     1.0757029423
 F     -1.1029969994    -0.1917819391     0.8392001277
 H     -4.2153458747    -2.2592782123     5.5120012851
 F     -4.1274938008    -2.8502037244     4.8163159738
 H     -4.5412112415     0.2556848082     5.9671251661
 F     -5.0013261843    -0.4180717642     6.3857363468
 H      1.6975306833    -2.9053879450    -4.5853969978
 F      1.4006371468    -3.6314564158    -5.0603367874
 H      2.1289292827    -4.9727070880    -2.4806689211
 F      2.8615677347    -4.7525041563    -1.9750598157
 H     -4.0025618133    -2.7554759353     3.2915732369
 F     -3.9092859039    -2.5800566803     2.3963544426
 H      4.5910622872    -3.6613607467    -2.3360331002
 F      5.0139083625    -3.0690889613    -2.8939796288
 H     -2.1513699985    -2.4133978995     2.0264546857
 F     -1.2382327216    -2.4806156446     1.9759463864
 H     -1.7778968178     1.5533330070     3.5922206150
 F     -2.1943909891     1.0483277004     4.2343975731
 H      3.5060742014    -2.0158123137    -3.6796002824
 F      2.6351737804    -1.7740197472    -3.8343833936
          24
Energy: -77.62160062850784 Kcal/mole
 H      2.3583451135    -4.8740369265    -1.9476970675
 F      3.2180004440    -5.1764100313    -2.0499331582
 H     -0.5839410118     2.2013068570     2.7372963756
 F     -0.4029191393     2.0044866988     1.8601521987
 H     -3.2651411543     2.2118997636     4.1482447453
 F     -2.4120571867     2.1007980854     3.8307653579
 H     -5.7184796619     0.0406952331     3.4811991807
 F     -6.6088795771     0.0227471772     3.6997280308
 H     -3.7398904402     1.0375825952     1.9180288907
 F     -4.3279795324     0.4492722020     2.3039448154
 H      1.2468080353    -2.9008058381    -1.2603194734
 F      1.0340823703    -3.5223222779    -1.9001273402
 H      4.4966129136    -4.3502923274    -1.4351249006
 F      5.0202264502    -3.6954008750    -1.0638634701
 H     -7.0962828100     1.5544021092     3.9343818057
 F     -7.0810158855     2.4652247591     4.0395389333
 H      4.8917092319    -2.4101151835     0.1207787462
 F      4.6417356848    -1.6378714672     0.5474423941
 H     -5.6105231480     2.4941080325     4.7722037517
 F     -4.7102960479     2.3280334982     4.8260499890
 H     -2.0635858216     1.9947202314     0.7942370164
 F     -2.9560647703     1.8793641622     0.6179891701
 H      3.1149968977    -1.4736591532     0.1783299149
 F      2.3814706608    -1.8562591696    -0.2172019893
          24
Energy: -76.57340613852404 Kcal/mole
 H      1.2174332892    -1.9535545867    -1.3093940023
 F      1.3369957648    -1.7713132793    -2.2001138911
 H     -0.3170957736     1.4372533586     0.6814132962
 F      0.0653150441     0.7252957446     1.1147345654
 H     -1.9574919054     2.0281739899    -0.3894569970
 F     -1.1251472988     2.4104605807    -0.4335978892
 H     -5.0418385504     1.6693362767     4.1611348331
 F     -5.7339473684     2.2360532001     3.9593767780
 H     -2.6994267059     0.3724105174     4.2959844001
 F     -3.6055169410     0.3908116039     4.4358088825
 H      3.1142123427    -0.8321198061     0.3370907499
 F      2.5256947309    -1.5293841801     0.4285151090
 H      0.9254283966    -0.0575994469    -2.7012122252
 F      1.0010158968     0.7356749943    -3.1549645705
 H     -4.4215454755     2.9784744884     3.1074668133
 F     -3.8035525830     3.1784749567     2.4601851145
 H      2.5694952983     1.5766546707    -2.3211328736
 F      3.3161425257     1.9853329571    -1.9799745877
 H     -3.7382306785     2.1074141145     0.8691261617
 F     -3.4148497446     1.4029801313     0.3791399018
 H     -0.5942043706     0.4842513139     2.8738037182
 F     -0.9265329279     0.3897745955     3.7232275698
 H      3.8274370788     1.2121142338    -0.5393954895
 F      3.8776415084     0.6282183680     0.1658946161
          24
Energy: -81.72497487651603 Kcal/mole
 H      3.0690674009     1.9924670456    -0.2981909223
 F      3.1297254669     1.8269853884    -1.1980939282
 H      1.1903380685    -0.9335808084     1.0321934969
 F      1.4333670497    -1.4971727487     1.7135084307
 H      0.1294519903     0.5032574617    -0.5009991437
 F      0.6273702600     0.4286372227     0.2654199431
 H     -1.6093989058     2.2854061345     2.2553667577
 F     -2.2277343807     2.5320851754     1.6247324014
 H      0.4214602229     0.9678308474     3.2054518259
 F     -0.1632048771     1.6588405665     3.0586141981
 H      1.7692967741     3.4547256660     1.1375095975
 F      2.4975069145     2.9011653835     1.2020851746
 H      2.4265335165     2.3766939921    -2.7457307263
 F      1.8173982324     2.7418575352    -3.3258158860
 H     -3.0868890493     2.6063466277    -0.0889371053
 F     -3.3831036859     2.4702112990    -0.9460328184
 H      0.5620733543     3.4978345141    -2.4272617352
 F     -0.0552640848     4.0794947993    -2.0787580784
 H     -1.8492489955     1.6062404501    -1.4646374887
 F     -1.0651890039     1.2714206511    -1.8023276306
 H      1.8946157076    -0.3906765597     2.7191413928
 F      2.0571831874     0.2826182908     3.3200863643
 H      0.1934038369     3.9986349050    -0.3524595449
 F      0.2974918076     4.0145944657     0.5584740349
          24
Energy: -83.77996306482851 Kcal/mole
 H     -1.6191648658     5.4284568422    -4.2922850835
 F     -0.8765434516     5.0426485067    -3.9173792773
 H      3.6031317592     1.9715221072    -2.2452725380
 F      4.1249519085     2.1276622127    -1.5075646017
 H      2.6339837676     2.8682226771    -4.0458885046
 F      2.8680695938     2.0475679205    -3.7103015616
 H      0.3025931974     5.4745908648     0.1319643404
 F     -0.5098200217     5.4167407586    -0.2893753403
 H      2.3374038792     4.8131699287     0.6628751919
 F      1.7061285989     5.4516239767     0.8493073485
 H     -3.8021948433     6.3506456466    -4.3628788262
 F     -3.2792395762     5.7077777251    -4.7554697382
 H      0.4197926231     4.3152675208    -4.6608865876
 F      1.3016173674     4.0693141609    -4.7136223925
 H     -1.7145874879     4.1834767258     0.0175953020
 F     -2.4399707801     3.6462383383    -0.1439070029
 H     -5.3126107823     5.9997876088    -0.5582981095
 F     -5.6436689235     6.7333199061    -0.9978659381
 H     -3.9979504778     4.2677255564     0.3655081316
 F     -4.7571039922     4.7698513118     0.4770638011
 H      3.7246178759     3.2146035928    -0.1697313651
 F      3.5539468601     3.7423667725     0.5604921832
 H     -5.4333498514     7.0719397687    -2.8394956976
 F     -5.2031802372     7.3849298427    -3.6701268806
          24
Energy: -79.68948183006673 Kcal/mole
 H     -0.3001230803     6.2987102067    -3.0036770793
 F      0.2515620316     6.3032096567    -2.2712070852
 H      6.0830548045     0.7476472601    -1.3068239202
 F      6.0907375196     1.3767655180    -1.9739372490
 H      4.3381068638    -0.0352313241     0.1598022096
 F      5.2353673521     0.1363880799     0.2395480320
 H     -1.1401024078     3.9464304105    -1.6023712797
 F     -2.0402485576     3.8629042480    -1.4485880253
 H      1.5516387703     4.0144002100    -1.0981665242
 F      0.6760874290     3.7424913375    -1.0790768996
 H     -1.9124221300     6.6542689385    -4.8152280103
 F     -1.0471942407     6.5500455345    -4.5299085723
 H      3.0880111419     0.9790361942    -1.1100941574
 F      2.9187914124     0.1715400787    -0.7098396051
 H      1.8857663395     5.9062443587    -1.7739050506
 F      2.5601390909     5.4560485375    -1.3456129601
 H     -4.5727174935     6.3661695826    -1.7693327815
 F     -4.8724476726     6.3720146051    -2.6359449528
 H     -3.1525236434     5.2419460605    -0.6713092011
 F     -3.7699727941     5.8369667492    -0.3463539330
 H      4.4198343033     2.3116352180    -1.8526594624
 F      3.5744910323     2.4542240860    -1.5271565149
 H     -4.1657833218     6.1584020331    -4.0049248193
 F     -3.6060103968     6.1179466016    -4.7301190212
          24
Energy: -77.05054600662788 Kcal/mole
 H      4.9784115810     0.8467039217    -2.4708986317
 F      4.0957403799     0.9393478731    -2.7015447872
 H      7.1900207053    -0.1728181358    -1.2634058735
 F      7.0090093880     0.3201269555    -2.0151565236
 H      5.8413014948    -1.0196956564     0.1490836736
 F      6.7350387800    -1.2057397523     0.0624219208
 H     -1.6942872948     2.1431641027    -5.0172938978
 F     -2.5475413242     2.0169209031    -4.7059914470
 H      0.4042849263     3.1308845920    -5.0888181735
 F     -0.2425299723     2.7583861020    -5.6215135479
 H      0.6241544848     6.8687669973    -3.8611730664
 F      1.3937675222     6.5206905503    -4.2181430367
 H      4.0305940981     0.5376971601     0.2271442893
 F      4.3014060063    -0.3309358891     0.3412781415
 H      1.3303685971     4.8374771024    -3.8873531755
 F      1.2143462948     3.9299062182    -3.8261738026
 H     -3.2808766054     6.5325171499    -4.5330312478
 F     -3.0936634695     7.4107052392    -4.3469508310
 H     -2.9869449719     3.7005100037    -4.3272847386
 F     -3.4353018902     4.4796076761    -4.1459786694
 H      2.9584963274     2.1496642364    -0.6413424129
 F      3.4520348313     2.0372728588     0.1232992832
 H     -1.6315028845     7.4003164366    -3.3106048527
 F     -0.8371158648     6.9573798278    -3.1937912253
          24
Energy: -81.33330180434456 Kcal/mole
 H      5.0175325869    -1.2548657526     2.4872595821
 F      5.2289060203    -0.9884453679     3.3388642148
 H      5.9765844734     0.3299746236     0.3813584492
 F      5.4647444273    -0.3722904483     0.6741596376
 H      6.2619798411     2.3003990019     0.9771941731
 F      6.7356055444     1.7792772222     0.3898273508
 H     -4.1998309362     3.6520671460    -5.7050924158
 F     -4.8204588842     4.2637198697    -5.4194512146
 H     -2.1678193870     2.8165031447    -6.6825837868
 F     -2.9839823782     3.2087015617    -6.8273158614
 H     -0.1090150855     3.4681848240    -3.2653673599
 F     -0.0117109848     2.6170063289    -3.5923476063
 H      5.5847222373     2.3870591801     2.9382450200
 F      5.3730341876     2.9767987491     2.2687045729
 H     -0.3234192619     2.2699886989    -5.3464646002
 F     -0.8125439654     2.2559884386    -6.1219966867
 H     -3.1291827184     6.1701291757    -1.9700958219
 F     -2.4301238224     6.0703493843    -1.3850747512
 H     -4.0722731265     5.3207425684    -4.2065509542
 F     -3.7907689344     5.8549675650    -3.5164436851
 H      6.1849041527     0.5059319424     3.6690546520
 F      6.5310595371     1.3489125795     3.7712754687
 H     -1.0539216952     5.5145063674    -2.1199547681
 F     -0.4408044984     5.0935501530    -2.6563987713
          24
Energy: -83.2885376695305 Kcal/mole
 H      2.7811985836     4.1123837229     1.9231662950
 F      2.0160804463     4.1609962670     2.4262766771
 H      4.7598038053     4.5865859982     1.9054758350
 F      4.3494192871     4.0308722102     1.3024370859
 H      5.5187605996     4.5914400687     3.9206280622
 F      5.6495012579     5.1405836082     3.1979682161
 H     -6.6769432978     2.5594856344    -0.4997368191
 F     -6.5464152370     3.4372639576    -0.2687462553
 H     -5.5208328857     0.3530135758    -1.0465114150
 F     -5.9179613527     0.6730889458    -0.2844551584
 H     -1.7499912347     2.0882997185    -1.9508685749
 F     -2.2579457326     1.3497234575    -1.7575389738
 H      3.9733265895     3.1336776204     4.7399792683
 F      4.7608223759     3.5856758692     4.8681860134
 H     -3.5206489703     0.1457534378    -1.9569140476
 F     -4.3688513557    -0.1842197855    -2.0689827113
 H     -2.6266285512     5.4811223106    -0.0783239917
 F     -1.7393495676     5.4974449740    -0.3093187450
 H     -5.1893029933     4.4872401927    -0.0587420469
 F     -4.4252794715     4.9878704411     0.0220441673
 H      2.0239940209     2.9606203092     3.8465076241
 F      2.4894308512     2.5181073502     4.5010607833
 H     -1.2563283505     4.4473878702    -1.5263622236
 F     -1.0758297343     3.7696427621    -2.1170997440
          24
Energy: -82.65061526138899 Kcal/mole
 H      5.6577868645     3.7333036622     4.5704225714
 F      5.7482121594     4.0919605934     3.7313293277
 H      4.6976425427     4.0194586116     6.0692155592
 F      5.2428833273     3.2883992775     5.9735403960
 H      3.4332476672     5.7933453900     5.1947768118
 F      3.6688777949     5.2621814659     5.9041655125
 H     -4.1156085986     3.7768833327    -1.2844708081
 F     -3.8118875612     4.4051386084    -1.8793975599
 H     -3.0702420444     2.2572020731     0.2193119184
 F     -3.9133470518     2.5440106147     6.711012E-40
 H      1.2893167454     3.6660826432     0.8969791470
 F      0.7973038103     2.8938114742     0.8478923540
 H      3.7652479988     6.8334626853     3.5824967407
 F      3.0896861468     6.9503613945     4.1914629760
 H     -0.8269692699     2.4653024234     0.8837961067
 F     -1.6150295017     2.0231668455     0.7276993359
 H     -0.8988304022     6.6420121024     0.3170331987
 F     -0.5603594413     6.7160836865     1.1660560541
 H     -2.5169631272     5.3437125762    -1.2915758216
 F     -1.7665419421     5.8142318374    -1.0541549509
 H      5.1481897516     5.2446354028     2.6694632547
 F      4.8635457549     6.0596746148     2.3603065338
 H      1.0266619237     5.6909643778     1.1923864875
 F      1.8117544717     5.2192719716     1.2373860996
          24
Energy: -83.57915896535279 Kcal/mole
 H      4.0021343434     2.1694897664     3.8219523581
 F      4.4669018787     2.6870400751     4.4194653840
 H      2.5369492127     2.5514290840     2.5277809402
 F      2.8054352807     1.6981522750     2.7295801439
 H      2.2233254772     4.8664896457     2.7997581700
 F      1.9933009873     4.0621188860     2.4243045577
 H     -4.5753556052     4.7048559191    -2.3498046352
 F     -4.2317092527     5.4074742999    -2.8284732005
 H     -3.7737813247     2.7799268047    -1.5321232170
 F     -4.6449537957     3.0118271992    -1.6999616295
 H     -0.2274845905     4.4144394477     0.5043822171
 F     -1.0444999847     4.1407468548     0.8181770708
 H      3.4806851398     5.6276810458     4.5461356383
 F      2.9657543956     5.9790404809     3.8736165857
 H     -1.8738862308     3.2626994987    -0.5435181651
 F     -2.0833238206     2.8529923033    -1.3367173267
 H     -0.6451735762     7.4540506437    -1.2436478706
 F      0.2364483120     7.4089455706    -0.9954596787
 H     -2.8627156446     7.0340824091    -2.3966834323
 F     -2.2630480981     7.3769576523    -1.7935877506
 H      4.3605423908     3.9853933490     5.6624323613
 F      4.2959705850     4.8880511164     5.8105148949
 H      1.1165695363     6.0605377823    -0.5118677804
 F      1.2408561308     5.2459026168    -0.1096099161
          24
Energy: -81.34671308057038 Kcal/mole
 H      2.2950198918     1.5132244360    -1.3239721971
 F      2.1174138371     1.3399384609    -0.4411828337
 H      0.0938109576     3.9466002738     3.2593010302
 F      0.4620221032     3.4844972656     3.9605644344
 H      2.4036361716     4.1620848346    -1.8804725967
 F      2.9786632835     3.4734096158    -2.0701018760
 H     -3.6986041108     5.6052968642     3.1663409158
 F     -3.2184285173     6.3171269980     2.8444430126
 H     -4.0787244046     3.4784100964     4.4960298511
 F     -4.2739017627     4.3676724808     4.3864524331
 H     -0.7130051228     2.9418215579     5.1713858792
 F     -1.5071604869     2.9351868644     5.6298204311
 H     -0.3756826605     4.3369762977     1.2028850724
 F     -0.7752288979     4.4714540868     2.0172360584
 H     -3.0813619427     1.8112803962     5.2343693704
 F     -3.9378686157     1.8782041215     4.9137347903
 H     -0.8425854558     6.6935876124     0.3069689987
 F      0.0473592519     6.4729880738     0.3219109108
 H     -2.9127758968     6.5799323868     1.2532875246
 F     -2.5716952185     6.7501147744     0.4192665861
 H      1.3711145356     2.7054566025     0.2492614338
 F      0.7626345709     3.3862722959     0.1648154501
 H      1.1518115373     5.7887565834    -1.0695822016
 F      1.6224395274     5.5428921902    -1.8172111170
          24
Energy: -87.41391134390038 Kcal/mole
 H      0.9878907830     2.1134499140    -2.7146981821
 F      1.4595840858     1.3883410321    -3.0190196197
 H      1.2380535288     1.4967106294     2.1939688477
 F      0.5390797017     1.2724059873     2.7435250472
 H      0.0167718891     3.6544322010    -1.1187533176
 F      0.0260159781     3.3211897055    -1.9730091259
 H     -5.6420863858     4.1762793788     0.9007540805
 F     -5.8985145332     5.0380424815     0.7204821742
 H     -4.5055634423     2.6255138121     1.9737600183
 F     -5.1341620300     2.6891686117     1.3091542088
 H     -0.7110273270     0.3333233827     2.1989108129
 F     -1.5442757584     0.0486069682     1.9429369571
 H      2.2604468307     1.3144808247     0.2191068685
 F      2.1439518098     1.9474654444     0.8722901363
 H     -2.6816465532     1.0894368976     2.4968617504
 F     -3.1636952574     1.7985678683     2.8219022298
 H     -2.1616755612     6.8682901866     0.1370748127
 F     -1.3609977671     6.6620331602    -0.2594880562
 H     -4.5831513626     6.1886461268     0.9550013492
 F     -3.7318582322     6.5029076090     1.0870192534
 H      2.1366787105     0.6121781564    -1.6696318896
 F      2.2633055604     0.1289481284    -0.9006433455
 H     -0.5761341894     5.0771095473     0.2948015691
 F     -0.2689375848     4.2200060366     0.4038557671
          24
Energy: -83.62909333633665 Kcal/mole
 H      1.8466651002     4.0511573569    -1.7923214506
 F      2.7421153067     3.9956536519    -1.6026447090
 H      2.2074542372     2.1532192687     4.1083378582
 F      1.4525926738     2.2528008051     4.6193726297
 H     -0.0243451478     3.8430585350    -0.2829858382
 F      0.1470418882     4.1135035975    -1.1422733059
 H     -4.6756274843     4.8021873076     5.6620994518
 F     -4.5545279943     5.6677665420     5.3846170155
 H     -4.0211491589     2.4007746822     5.7255703792
 F     -4.6737487846     2.9387298185     5.3711596009
 H     -0.0505571500     2.8471205983     4.9615457772
 F     -0.7263347890     3.2986902586     5.3861613970
 H      3.3946849374     2.4209231945     2.1302218022
 F      3.5177285661     2.4000821970     3.0386902487
 H     -1.8486550102     2.3870442596     5.9809752606
 F     -2.5249309564     1.9290693160     6.3978670877
 H     -2.2404914509     6.3670315070     3.1320222903
 F     -2.3232203605     5.7013431489     2.5067991802
 H     -2.9332643977     6.6395139965     5.0176213440
 F     -2.1512543089     7.0637749082     4.7954684692
 H      2.8234837164     3.1488601189    -0.2007000393
 F      2.8719784692     2.5878283914     0.5230268841
 H     -1.5036908152     4.3138246152     1.6151543484
 F     -0.9697311595     3.6867361494     1.2119966346
          24
Energy: -82.62001226157837 Kcal/mole
 H      2.8125211846     3.0076655039    -1.4619895682
 F      3.6983416242     3.2053164473    -1.5929294529
 H      1.8532528550     3.5269361157     3.6473337164
 F      1.3466101345     3.2784194823     4.3701349593
 H      0.6600391937     2.3692994458    -0.0520950614
 F      1.3009886030     2.9301802831    -0.3919266978
 H     -3.6248836001     5.8507339523     5.2680629616
 F     -4.3221625764     5.2593994487     5.1972495860
 H     -1.7555694925     6.6724809074     6.0641383228
 F     -2.4343430212     6.8760109789     5.4821323033
 H      1.4088395885     4.4348779366     5.6065486305
 F      1.3828439400     5.1819464426     6.1376812634
 H      3.9250216832     3.7349150292     1.8112958097
 F      3.2723816478     3.7958607490     2.4525723518
 H     -0.1915314349     5.3003207830     6.7931699460
 F     -0.8776951521     5.7224934243     7.2311637978
 H     -2.5889827732     4.4193224021     1.5715102627
 F     -1.8039247651     4.2843155990     1.1172569335
 H     -4.0801085404     4.8014330993     3.4063633602
 F     -3.7130568393     4.6276025421     2.5842046248
 H      4.4364737947     3.2524980672    -0.2566073945