          12
Energy: -45.02729995527508 Kcal/mole
 H     -0.9181306483     3.6115896642    -2.1734618731
 F     -0.8801355706     2.7028046817    -2.2898888015
 H      0.3280830120     1.6996844895    -1.8987004529
 F      1.0674973816     1.2018636695    -1.6834568204
 H      3.1701865593     3.6313516913    -0.7434308974
 F      3.2864683557     4.2196623457    -1.4371585945
 H      2.3074372146     5.5155549358    -1.5461238302
 F      1.6761781113     6.1803612695    -1.5669440880
 H      0.1054314968     5.6950305302    -1.7802178530
 F     -0.7129581579     5.2906952706    -1.8676270682
 H      1.8664118048     1.8670420443    -0.4237076408
 F      2.3655460212     2.3711729336     0.1573311535
          12
Energy: -45.53402630482918 Kcal/mole
 H     -0.4229031240     3.4984100670    -0.4551028358
 F     -0.9183096374     3.0876142750     0.1981262234
 H     -0.1240998332     1.8262160395     0.8930161162
 F      0.4677432569     1.1749282219     1.1507658697
 H      3.8488684546     2.7457917013     0.7968642615
 F      4.3374057179     3.2375272146     0.1965172557
 H      3.5499944330     4.5136490827    -0.5595965841
 F      2.9792413512     5.1171058610    -0.9481449546
 H      1.5217220923     4.4314458089    -1.4090129580
 F      0.7170743906     4.0246433425    -1.5761740462
 H      1.9207439618     1.8181938475     1.6963697357
 F      2.7423254560     2.1685038175     1.9041575438
          12
Energy: -45.02967812239325 Kcal/mole
 H     -2.0421615988     3.4529120905    -0.1084630128
 F     -2.1516583460     3.0640048545     0.7147323614
 H     -1.2756996481     1.6529682795     0.8491821173
 F     -0.7681639317     0.8928809292     0.7745917931
 H      1.8785438405     3.3315210766     0.9938368002
 F      1.8612766140     4.2449121000     0.9144158879
 H      1.0825509361     5.3385355196    -0.1144469566
 F      0.5055104700     5.7321299637    -0.7085822225
 H     -0.7846959865     4.8624333655    -1.3307440286
 F     -1.4716521806     4.2777217154    -1.4953419435
 H      0.8180604053     1.3547187968     1.1533255630
 F      1.6409737023     1.7414762730     1.2721588925
          12
Energy: -44.48125804963344 Kcal/mole
 H     -1.4066291778     5.3913170711     0.2749195186
 F     -1.6495667898     5.5043907732     1.1518942358
 H     -0.4912753409     5.0076921758     2.1283998441
 F      0.1073508942     4.6691833112     2.7349865067
 H      3.0274373450     3.5303530962     0.8390879443
 F      3.3003877330     3.3644681932    -0.0204871162
 H      2.2820436935     4.2668743860    -1.0065910101
 F      1.6815970460     4.8003096913    -1.4490834943
 H      0.0914668352     4.8531912703    -1.3939432855
 F     -0.8145922479     4.9038126030    -1.2620970925
 H      1.7451880887     4.1246686913     2.6673030919
 F      2.5496148971     3.7777388604     2.3963303951
          12
Energy: -44.898208247844394 Kcal/mole
 H     -1.1707462590     4.1608367734     0.2379033065
 F     -1.2110848846     3.5951880125     0.9585303074
 H     -0.0116537787     2.5625904372     1.4997824067
 F      0.6105573317     1.9765468360     1.8318896659
 H      3.4288503813     4.3468187118     0.8541599229
 F      3.3034087900     5.0234815075     0.2481229041
 H      2.2643019996     4.8555115742    -1.0980794493
 F      1.6006606471     4.6591598317    -1.6996732894
 H      0.0096359386     4.8915351266    -1.4657935777
 F     -0.8568129509     4.9927586037    -1.1831115487
 H      2.2206471252     2.5537282869     1.7786411369
 F      3.0386184683     2.9677105275     1.7993917127
          12
Energy: -45.15865219906894 Kcal/mole
 H     -1.7335684713     3.8454799082    -0.7521583991
 F     -1.7264182192     3.0108152197    -0.3724575542
 H     -0.1474297818     2.5614698740     0.0055800796
 F      0.7576697562     2.5228772584     0.1476872097
 H      2.1774657268     5.2505868861     1.4672557441
 F      2.2708844168     5.9934283382     0.9377762587
 H      1.1983865104     6.2710189932    -0.2987789414
 F      0.5327272631     6.4207322784    -0.9114556088
 H     -0.9027917151     5.7848125405    -1.3165593099
 F     -1.6637333843     5.2977047198    -1.4733481714
 H      1.4283297272     3.1833009780     1.5130647921
 F      1.8469710412     3.7028335950     2.1421230645
          12
Energy: -45.08715624829526 Kcal/mole
 H     -1.6929168514     3.2532793018    -1.1147882293
 F     -1.7054434671     2.5260100438    -0.5563873784
 H     -0.1821369450     2.1433915450     0.0615706486
 F      0.7128114605     2.0886992273     0.2538337543
 H      2.2422616279     5.2383153621    -0.3962374702
 F      2.5156283652     5.6413018071    -1.1732584172
 H      1.6851454113     4.8413354151    -2.4302857396
 F      1.0567333903     4.3461056038    -2.8783200751
 H     -0.5522613775     4.6055410655    -2.5076011254
 F     -1.3885477807     4.5323054827    -2.1386152162
 H      1.3190663002     3.5727154351     0.8076153965
 F      1.5653876567     4.4533881671     0.8756619131
          12
Energy: -45.19317698799341 Kcal/mole
 H     -0.9769316135     2.9760347521    -1.3741778193
 F     -1.2408620241     3.3012565301    -0.5584201755
 H     -0.3194969192     3.3681064079     0.8576826032
 F      0.3065289967     3.4515080844     1.5225319945
 H      3.0716910356     4.2849263032    -0.9083457032
 F      3.3305462006     4.0657299146    -1.7603057650
 H      2.0928378288     4.3319547697    -2.8242231754
 F      1.2708565025     4.4034588996    -3.2243767193
 H      0.2117923943     3.2083068447    -3.0911113872
 F     -0.3852914774     2.5708939486    -2.8116750794
 H      1.7357071397     3.9971704224     1.0390109401
 F      2.4796295587     4.3642485693     0.6482142303
          12
Energy: -45.38607707593482 Kcal/mole
 H     -2.4213666534     2.7941581613    -1.2078687937
 F     -2.3000204287     2.4673211233    -0.3597286848
 H     -1.1142398465     3.0320778095     0.7077004245
 F     -0.3986726932     3.3087930719     1.2099765563
 H      2.3242488757     3.2035032982    -0.7945261879
 F      2.3280736371     3.4516958520    -1.6772916309
 H      1.0863743961     3.2501716758    -2.8092024285
 F      0.3813946728     3.1297093509    -3.3831200340
 H     -1.2130469049     3.3764087359    -2.9672457662
 F     -2.0642917618     3.5499103762    -2.6737012644
 H      1.2036399027     2.8130468197     1.0406183818
 F      2.0528781225     2.6027246164     0.7659403579
          12
Energy: -45.24750691126221 Kcal/mole
 H     -1.7979981783     3.4396443898    -1.1276725836
 F     -1.8444391603     2.9721711228    -0.3401441842
 H     -0.8608151604     3.0236160814     1.0066611006
 F     -0.1259483503     3.0040681083     1.5548195158
 H      2.5227081347     2.6911014637    -1.1179813432
 F      2.7495460291     2.8477349157    -1.9925666914
 H      1.4762951183     2.7794129676    -3.0149003423
 F      0.6948382163     2.8020166817    -3.4941739411
 H     -0.6620984734     3.6476115035    -3.0669786481
 F     -1.3223260333     4.1048803693    -2.6243797851
 H      1.2580890091     2.6005178871     0.8246167128
 F      1.9850485633     2.3010788755     0.3526473443
          12
Energy: -44.907863731845566 Kcal/mole
 H     -0.0809112686     5.2382573275    -0.6443776683
 F     -0.1686819782     4.8067950430     0.1600013466
 H      7.405027E-40     3.1737174606     0.5153210885
 F      0.2701258327     2.3084512008     0.6554454752
 H      3.1548360014     2.1406553946    -1.3019279172
 F      3.1863802099     2.2610199033    -2.2104466831
 H      2.1452257555     3.3084126106    -2.9625476732
 F      1.5489162395     3.8728108233    -3.3709085659
 H      0.6376381683     5.2616154865    -2.7257194456
 F      0.2747219254     5.8700620412    -2.1435050601
 H      1.9099087101     2.1519567693     0.5062769256
 F      2.7745960213     1.9371021983     0.2893844011
          12
Energy: -44.69956210530333 Kcal/mole
 H      1.4909126237     6.1157362120    -1.4999728003
 F      1.6638737962     6.2523472236    -0.6098543451
 H      1.9937382598     4.7930869153     0.1644806947
 F      2.1551043378     3.9578969560     0.5069828416
 H      0.4135166943     1.3604964370    -1.6837808900
 F     -0.1012234403     1.3000280145    -2.4402695969
 H     -0.3792035378     2.7675289497    -3.3770490748
 F     -0.4077022658     3.6360301448    -3.6699355659
 H      0.7595629204     4.8669248711    -3.4806402785
 F      1.4015752071     5.4063786856    -3.1095623814
 H      1.8202023100     2.4021634716    -0.0830115355
 F      1.5758394945     1.5813854384    -0.4108822945
          12
Energy: -45.08522842227444 Kcal/mole
 H      1.6190571772     5.2673878207    -2.6197097676
 F      2.3754350552     5.0095052536    -2.1699564049
 H      2.4248991950     3.9088149624    -0.8982788324
 F      2.3744202954     3.2426970737    -0.2700847229
 H     -0.7612262018     2.2176748525    -0.3836790259
 F     -1.3165941298     2.9218563614    -0.5749481220
 H     -1.5312597970     3.3491997892    -2.1728812189
 F     -1.3974825558     3.4659241407    -3.0725300812
 H     -0.4370801223     4.7756862120    -3.3390455300
 F      0.1235993512     5.5006531767    -3.3082165174
 H      1.3353902919     1.8158448132    -0.1685070611
 F      0.6159883090     1.2503414990    -0.2281374952
          12
Energy: -45.187329605739535 Kcal/mole
 H      3.3107845077     5.0829423249    -2.2359489328
 F      3.4943186271     5.0239410115    -1.3394428971
 H      3.1575298939     3.5652726466    -0.6293315841
 F      2.9177465778     2.7445357649    -0.2979949993
 H      0.0392597294     1.6734446840    -2.3548037688
 F     -0.5383061114     2.1377172728    -2.8949497331
 H     -0.2062515220     3.4525397797    -3.8441080828
 F      0.1603829430     4.1399586720    -4.3277644025
 H      1.7403770760     4.6703997672    -4.1203978236
 F      2.5946829153     4.7913695357    -3.8098871990
 H      1.9161815589     1.7150776495    -1.0324413737
 F      1.3259582101     1.1385020501    -1.4325488304
          12
Energy: -45.47264911643407 Kcal/mole
 H      1.9387925252     6.7109662998    -1.4782674198
 F      2.6841260659     6.2224446561    -1.6944005194
 H      2.7831817108     4.6162852469    -2.0007879223
 F      2.7616918251     3.7097626197    -2.1373306305
 H     -0.2726044947     3.0334713424    -0.5954400218
 F     -0.6665579873     3.5585480254     0.0448600037
 H     -1.4128002996     4.9883576497    -0.5056057234
 F     -1.5928434966     5.8038961953    -0.8842484678
 H     -0.3183830431     6.9136987715    -1.1370305010
 F      0.4289178230     7.3990822020    -1.3534406230
 H      1.3974123309     2.7226732032    -1.9700028250
 F      0.6052019053     2.2934916926    -1.7994306337
          12
Energy: -45.380505352689426 Kcal/mole
 H      2.0744346912     6.2981651318    -1.4760147397
 F      2.9229526439     6.0880087444    -1.7530356358
 H      2.8197645540     4.7472584280    -2.8255303022
 F      2.6691858643     3.9403837646    -3.2343925477
 H      1.2746008076     2.2301814555    -0.5650464266
 F      1.3469502331     2.5402927048     0.2948870439
 H      0.3357159680     3.7899772721     0.8019229165
 F     -0.1797432262     4.5418689725     0.9011685208
 H      0.1823003829     5.6877564883    -0.2519476174
 F      0.4681835684     6.2528817558    -0.9151167031
 H      1.7971548149     2.6223565909    -2.6807547477
 F      1.3382518905     1.9755654543    -2.2203654215
          12
Energy: -45.23435221702596 Kcal/mole
 H      1.6375323147     5.9739436031    -1.7627087959
 F      2.1906388271     6.2663826824    -2.4331128314
 H      2.6949518805     5.1408195776    -3.5799412605
 F      2.9024912131     4.4585865049    -4.1564605230
 H      0.1060817111     1.8067667624    -2.6707789559
 F     -0.4714685479     1.5472713620    -2.0074639210
 H     -1.0086255507     2.8541131994    -1.1829213581
 F     -1.2562867162     3.6318030251    -0.7648884862
 H     -0.0536712992     4.8489798021    -0.5878998139
 F      0.6794475709     5.3990284811    -0.5583672379
 H      1.7768531480     3.2711403634    -4.0031955991
 F      1.1653330355     2.6188230202    -3.7996907203
          12
Energy: -45.53939210417212 Kcal/mole
 H      2.1564591080     5.5110932757    -0.5938255142
 F      2.9203972582     5.2182063854    -1.0079568606
 H      3.1808657451     4.5718463297    -2.5280286345
 F      3.2028095743     4.1941108113    -3.3633269922
 H     -0.1403440616     2.7293866251    -3.2834829412
 F     -0.9472551683     3.0455701963    -2.9837974142
 H     -1.0992858542     3.6119447661    -1.4481071853
 F     -1.0668139028     3.9325528533    -0.5895939200
 H     -0.0627260774     5.2763756490    -0.1396694585
 F      0.6248247766     5.8737734847    -0.0334684741
 H      2.1208343247     3.0288880835    -3.8012808030
 F      1.4510798296     2.4027352092    -3.8171078158
          12
Energy: -44.857761496982974 Kcal/mole
 H      1.7805070536     5.2871331645     0.0185297515
 F      2.4612463229     5.5092374847    -0.5543164043
 H      2.8511419976     4.1656709596    -1.4444805109
 F      2.8396853719     3.3999488060    -1.9488884105
 H     -0.5976889973     4.1134295353    -2.8223372110
 F     -1.2220994954     4.7844977298    -2.7964913556
 H     -1.7802450680     5.3378585491    -1.2483526686
 F     -1.7719600643     5.5251492807    -0.3507210401
 H     -0.5194716289     5.0887860825     0.4811966176
 F      0.2959362035     4.8174156827     0.8011296934
 H      1.3517687753     3.0322818574    -2.4905181254
 F      0.4863057024     2.9058838828    -2.7659926641
          12
Energy: -45.31336487926056 Kcal/mole
 H      1.8199481328     3.6495073983    -0.0933947016
 F      2.6167524769     3.3331508927    -0.4188334803
 H      2.8358269620     3.3243023142    -2.0578986372
 F      2.8168485406     3.2963950947    -2.9742773835
 H     -0.0122119316     4.8163690982    -4.7423709790
 F     -0.8501051495     5.0835983416    -4.4827318316
 H     -0.9988205955     5.1174203865    -2.8150585193
 F     -0.9584803380     5.0620480591    -1.9006212230
 H     -0.2241590743     4.5390976427    -0.5214222891
 F      0.2729727471     4.1904754795     0.1657542090
 H      1.9858862258     3.8547946965    -4.3576566963
 F      1.4754716851     4.2297403136    -5.0208171451
          12
Energy: -45.050468421071514 Kcal/mole
 H      1.2335354366     4.0559990170    -0.0696987897
 F      1.7510405166     4.8110615855    -0.1240863791
 H      2.6308687908     4.6149616070    -1.5563723791
 F      2.9167967331     4.2999889055    -2.3687309263
 H      0.0985478438     3.6305150896    -4.4452081207
 F     -0.6927024900     3.2034723953    -4.2650791490
 H     -1.2686632264     3.5188355784    -2.7839971393
 F     -1.4841617089     3.6068993660    -1.8970393199
 H     -0.4338853332     2.9683963674    -0.6499249666
 F      0.2605284759     2.7908357311    -0.0779540913
 H      2.0389996500     4.5439377647    -3.8055306168
 F      1.4671288003     4.5409543266    -4.5223596273
          12
Energy: -45.43855758358666 Kcal/mole
 H      0.7282441442     5.1188702221    -0.4955996820
 F      1.6260628632     5.2916305733    -0.5660582444
 H      2.2327768190     5.1618273447    -2.1323112023
 F      2.4945517247     5.0641908389    -3.0057126057
 H      0.4880458293     1.9428269830    -3.9282634137
 F     -0.1844581896     1.3971870705    -3.6267597979
 H     -1.1465638824     1.8847381186    -2.3466617460
 F     -1.5247408269     2.3018593444    -1.6228654476
 H     -1.1881661134     3.7955639736    -1.0316913207
 F     -0.8581204669     4.5625507810    -0.6526265393
 H      2.0540843671     3.7504915700    -3.8703206551
 F      1.7633193040     2.9974979433    -4.3054588816
          12
Energy: -45.3029040420395 Kcal/mole
 H      2.1733634319     3.8047949557     0.2923724327
 F      2.9332799246     4.3078474441     0.1906172464
 H      3.3219202775     4.9543245979    -1.2962880232
 F      3.3436520050     5.2014539569    -2.1790925383
 H      1.6129054347     2.5018897373    -3.7357710190
 F      0.8207455283     2.0581850172    -3.6073272409
 H     -0.3060153490     2.2322873392    -2.4663291100
 F     -0.7511028060     2.3745586868    -1.6773138888
 H      0.2439726738     2.5774576410    -0.3928587268
 F      0.8269977393     2.7936638078     0.2811039328
 H      3.1302712629     4.0333283550    -3.3050272365
 F      2.9911102698     3.3312610984    -3.8782852807
          12
Energy: -45.39087428086475 Kcal/mole
 H      3.1120963318     4.1066996813    -0.0113656179
 F      3.8718874157     4.5546202714    -0.2623111375
 H      3.6761134733     5.6689120117    -1.4523028234
 F      3.4598661590     6.1300451537    -2.2148527067
 H      1.7556918123     3.4529526783    -4.2792497978
 F      1.2421683758     2.7044615764    -4.1490816351
 H      0.7025339547     2.2794048847    -2.6173266482
 F      0.5093997151     2.0287005175    -1.7566667352
 H      1.0819486479     2.8572466063    -0.3924152494
 F      1.5694740074     3.3594140801     0.2000675369
 H      2.9536344812     5.4037910294    -3.6737169837
 F      2.6859811857     4.8387396676    -4.3445132806
          12
Energy: -45.68506171863115 Kcal/mole
 H      3.6962042034     3.7379662773    -0.2722668259
 F      4.0805483120     4.5542358163    -0.4361956086
 H      3.8986314561     5.5730639648    -1.7759759781
 F      3.6611506413     6.0242756259    -2.5381438726
 H      0.9742295905     3.9609283091    -4.0719205263
 F      0.7140480313     3.0859775166    -3.9844238576
 H      0.6223495191     2.6466924944    -2.4394599243
 F      0.6513179337     2.5018647636    -1.5344324333
 H      2.1131012128     2.2666982105    -0.6689798207
 F      2.9270692907     2.2557459287    -0.2468127736
 H      2.3456953796     5.7674038396    -3.5141986223
 F      1.6167803801     5.5185721645    -4.0118478170
          12
Energy: -45.263511672893785 Kcal/mole
 H      4.2515864112     2.1966997460    -1.4793419338
 F      4.7914920562     2.5944782553    -2.1047723072
 H      4.1652742873     3.9633062199    -2.6066217947
 F      3.7866850756     4.7577970969    -2.8641940276
 H      0.1562526362     4.4948886348    -2.0360672066
 F     -0.3355966453     3.9879762299    -1.4512483474
 H      0.1412504818     2.4264823396    -1.4910334116
 F      0.5661341758     1.6221684645    -1.6069732106
 H      2.0571829804     1.5660965497    -0.9174804419
 F      2.9144209986     1.6091221284    -0.5947099666
 H      2.1846010615     4.9181854142    -3.1089383191
 F      1.2776103663     4.9649722932    -3.2356974083
          12
Energy: -45.53237203667919 Kcal/mole
 H      3.8635686337     1.7943016404    -3.0900798655
 F      4.5635233511     2.3864678327    -3.0730037310
 H      4.4743465056     4.0218173823    -2.7268247431
 F      4.3295559817     4.9177978320    -2.5958906451
 H      0.8247086165     4.4953778031    -1.5069947513
 F      0.4243814782     3.8835161836    -0.9535938651
 H      0.6562849937     2.2983460892    -1.1649736522
 F      0.8713644931     1.4228834867    -1.3328874412
 H      1.9113970996     0.9096128322    -2.5496766440
 F      2.5782098240     0.7631275550    -3.1618791058
 H      2.6759806041     5.3061719731    -2.5790930683
 F      1.7668618919     5.4162268473    -2.5313427617
          12
Energy: -45.374102938073406 Kcal/mole
 H      3.4753770454     1.8346776034    -3.3873284351
 F      4.1515951448     2.3516668029    -3.0462415696
 H      4.0747689108     4.0133669146    -3.0898693743
 F      3.8873130200     4.9108492682    -3.0732948769
 H      0.6611098919     4.9827585795    -1.5683900071
 F     -0.0790142927     4.5063320359    -1.8255338187
 H     -0.1789074391     3.0300270249    -2.5567336122
 F     -0.1753498068     2.2741643688    -3.0759137239
 H      1.1728970976     1.5391166800    -3.7941007231
 F      2.0141893629     1.2399194409    -4.0029004751
 H      2.7837721024     5.5092929332    -2.0010911865
 F      2.1013909750     5.8030587297    -1.4635536028
          12
Energy: -45.37569342503116 Kcal/mole
 H      4.0271117347     2.4211571024    -2.8757393481
 F      4.3331270865     2.7857234932    -2.0919441255
 H      4.1791986306     4.4569843444    -1.9756005997
 F      4.0605260849     5.3651790804    -1.9310119430
 H      0.5677946634     5.0375994040    -2.7001268688
 F      0.0693005541     4.2716460883    -2.7756791096
 H      0.4269919422     2.8999192583    -3.7027021787
 F      0.7113502313     2.1679356317    -4.1762307775
 H      2.3343102128     2.0061408463    -4.4074408532
 F      3.2407857443     2.0474549180    -4.2752127995
 H      2.5320326158     6.0376541663    -2.2635317305
 F      1.6912891460     6.2835881255    -2.5347436506
          12
Energy: -45.490903245343844 Kcal/mole
 H      3.0719941348     1.8871834596    -1.8946183127
 F      3.3313584003     2.3270365273    -1.1329435418
 H      2.5882945837     3.6094353965    -0.5178493198
 F      2.1446416462     4.4004440080    -0.3823264525
 H      0.9011047886     5.4533255988    -3.4745758365
 F      0.1443977332     5.1723679480    -3.9097151600
 H      0.1983608332     3.5310843702    -4.1727090237
 F      0.3757684205     2.6344462068    -4.2465707310
 H      1.6767422578     1.7212557763    -3.6859030377
 F      2.3909582918     1.3112557472    -3.2825614542
 H      2.2462045367     5.2821872939    -1.7807342796
 F      2.2689233996     5.6412339298    -2.6242141944
          12
Energy: -45.309745976580984 Kcal/mole
 H      1.4200078566     1.6816315068    -0.7531364994
 F      1.7751906676     1.9418556987     0.0512375061
 H      2.4839811888     3.4373808495     0.0892283109
 F      2.7728322736     4.3019528015    -0.0106185252
 H      1.5007145623     5.1837408651    -3.2790612278
 F      0.6822081539     5.2178967012    -3.6910923411
 H     -0.2710015141     3.8991600284    -3.3793790063
 F     -0.6532442576     3.0930750247    -3.1672317653
 H      0.3858190188     1.8617858712    -2.6144375069
 F      0.9973590678     1.2729445390    -2.2677767880
 H      2.9023041586     4.8272075059    -1.5989716510
 F      2.9520522145     4.9798879858    -2.5018020902
          12
Energy: -45.56736883500699 Kcal/mole
 H      2.0214606172     1.3169381227    -0.9663313864
 F      2.8670765448     1.4421869722    -0.6344648037
 H      3.5141914452     2.8809018051    -0.6204763139
 F      3.7948423663     3.7538965917    -0.6225166751
 H      1.6232284539     5.2030415245    -3.4676094439
 F      0.9771563096     4.9641831838    -4.0729411525
 H      0.5551983073     3.3594392027    -4.1580560472
 F      0.3844573621     2.4632473028    -4.0654460686
 H      0.4742655941     1.6614571161    -2.6198392647
 F      0.5588273262     1.2871335357    -1.7870006425
 H      3.2113212840     4.9354766814    -1.6531058277
 F      2.8173299913     5.4561549258    -2.2969645289
          12
Energy: -45.46198900739387 Kcal/mole
 H      2.3975305411     0.9096514001    -1.7436892419
 F      3.0575485919     1.1012363585    -1.1365975056
 H      4.0913701218     2.3166343484    -1.6647395056
 F      4.5257068579     3.0707955969    -1.9536710042
 H      1.5235264568     5.0050730749    -1.6884883323
 F      0.6696465678     4.9116351178    -2.0094984307
 H      0.2819580529     3.6985628144    -3.0941813735
 F      0.1654086356     2.9896963780    -3.6641055866
 H      0.8622461144     1.5382148600    -3.2628085168
 F      1.2986337561     0.7874809628    -2.9680994369
 H      3.7420825079     4.5173168030    -1.4905999728
 F      3.0760337617     5.1064081341    -1.2664583406
          12
Energy: -45.79087828312316 Kcal/mole
 H      2.1274536278     0.3711579327    -2.2211242647
 F      3.0365383850     0.4374410662    -2.3214260614
 H      3.7495935821     1.9128638450    -2.0788739980
 F      4.0309152253     2.7722683857    -1.9266538663
 H      1.1916428281     4.8303894629    -1.2119848215
 F      0.3765571152     4.5997403271    -0.8608078620
 H     -0.4304847241     3.5213405027    -1.8373397684
 F     -0.6752675252     2.8653647624    -2.4295105279
 H      0.0282188912     1.3620750944    -2.2044889575
 F      0.4808149277     0.5817178141    -2.0399035911
 H      3.2162235188     4.2713629852    -2.0090354701
 F      2.6589477939     4.9993749210    -1.9908314103
          12
Energy: -45.5907614071462 Kcal/mole
 H      2.2564454948     0.2695521077    -1.9501429987
 F      3.1528544275     0.3532410490    -1.7759701349
 H      3.9185161462     1.8086142592    -1.6041440811
 F      4.2483808285     2.6549594144    -1.4785328969
 H      1.0775403385     4.7509194459    -0.7432991157
 F      0.1695559777     4.6649301085    -0.8384791264
 H     -0.4716413842     3.1616699685    -1.1843237549
 F     -0.6694078931     2.2712544042    -1.2788622697
 H      0.1196548124     1.0164029940    -1.9609728265
 F      0.6572681768     0.3483352808    -2.2858518824
 H      3.3289201608     3.9628306122    -0.9954200684
 F      2.7506536409     4.6365202978    -0.7659880753
          12
Energy: -45.60412034113773 Kcal/mole
 H      1.9636554873     0.3713849881    -1.4396701134
 F      2.8168413194     0.4669479495    -1.1174424668
 H      3.7212602475     1.9036562066    -1.3310624462
 F      4.0220693266     2.7697967574    -1.3453258292
 H      0.9708836307     4.7034448165    -1.2993853533
 F      0.1290984005     4.5749046446    -1.6396265184
 H     -0.6279398238     3.1021355996    -1.3527484796
 F     -0.9802291393     2.2893225744    -1.1158598468
 H     -0.1881865250     0.9416947498    -1.6493197162
 F      0.3818215751     0.2809444365    -1.9310798789
 H      3.1440812628     4.1670695010    -0.8897360073
 F      2.5017970857     4.7948050986    -0.7045116693
          12
Energy: -45.74431133838516 Kcal/mole
 H      2.2176847534     0.1433168410    -1.1739716443
 F      3.0047290802     0.2810205541    -0.7239850722
 H      3.4341000980     1.8500992173    -0.8455435926
 F      3.5154366682     2.7588288557    -0.9376511739
 H      0.3601427368     4.1099877766    -0.4556505546
 F     -0.3664955870     4.0075365326    -1.0055500810
 H     -1.0202592228     2.5179100894    -1.4011369572
 F     -1.2426942776     1.6706294877    -1.6722960034
 H      0.0501325669     0.6347420121    -1.9341606619
 F      0.8072750135     0.1329930974    -2.0601461460
 H      2.4736313398     3.6621991529    -0.0750631771
 F      1.7843951591     4.0915122349     0.3510034431
          12
Energy: -45.58825828195995 Kcal/mole
 H      2.2999001003     0.1929834831    -1.1164514119
 F      2.8948252278     0.3156619225    -0.4294993807
 H      3.3768071865     1.7961093280     0.2239734874
 F      3.5990147049     2.6564561333     0.4505042653
 H      0.1641307994     4.0283361773    -0.2873882655
 F     -0.6742963376     3.6742891347    -0.3995472038
 H     -0.9157985298     2.2587451018    -1.1714954804
 F     -0.9543810181     1.4197132354    -1.5394980872
 H      0.3784180226     0.5557345890    -2.1586594721
 F      1.2015970723     0.2036719320    -2.3569449676
 H      2.5040480987     3.8294731642     0.1651555070
 F      1.8020722585     4.3716372828    -0.0676040005
          12
Energy: -45.84408455187358 Kcal/mole
 H      2.4819790412     0.6361233257    -1.5479240141
 F      3.1401028357     0.8532739623    -0.9474178341
 H      2.8186896782     1.6366883109     0.5019779238
 F      2.6386910345     2.1852430056     1.2144224727
 H      0.2026926719     4.3370999798    -0.4315852112
 F     -0.5399781416     4.1593282373    -0.9392526914
 H     -0.2994085371     3.2464915121    -2.2782431782
 F     -0.0723607818     2.7031196352    -2.9811552070
 H      0.6834214970     1.2180909442    -2.7338837002
 F      1.1197098312     0.4489893042    -2.4909348233
 H      1.9976623115     3.6487184950     0.7857589644
 F      1.6357843539     4.4258104023     0.4600881007
          12
Energy: -45.594989619892885 Kcal/mole
 H      2.3317821908     0.8933556475    -1.2028393296
 F      2.9002454473     0.8691188542    -0.4837071416
 H      2.2664288020     1.4842805149     0.8691167483
 F      1.8815882208     1.9439953006     1.5629820399
 H     -0.1352424687     4.2342444699     0.0655732096
 F     -0.8413209741     3.9995550588    -0.4703960288
 H     -0.6532598802     3.3932199241    -1.9946256723
 F     -0.4696672542     2.9206036745    -2.7587046134
 H      0.5619805568     1.6208370331    -2.5914332631
 F      1.1952334996     0.9768037531    -2.4330008015
 H      1.5208479097     3.4745948904     1.2652866985
 F      1.2300005481     4.3057025172     1.0092458327
          12
Energy: -45.717142342575215 Kcal/mole
 H      2.0416917871     0.5884691639    -0.7901509856
 F      2.8207665605     0.7824253980    -0.3470793473
 H      2.5643164671     1.5905568103     1.0457993730
 F      2.3284244973     2.0531925413     1.8015851621
 H      0.1406501633     4.5220358749     0.3776975218
 F     -0.5679740665     4.3970666917    -0.1907419246
 H     -0.4174201541     3.4287182094    -1.5580434096
 F     -0.2683790820     2.8354246999    -2.2411821733
 H      0.2745864118     1.2612321236    -1.8934508796
 F      0.6059739947     0.4691165092    -1.5715438693
 H      1.8856254482     3.6729863294     1.4682209219
 F      1.5818307051     4.4936429120     1.1941396795
          12
Energy: -45.726518025884474 Kcal/mole
 H      2.4740522668     0.9453010828    -1.0140749154
 F      3.0407943163     0.8744484121    -0.2966682327
 H      2.6951921365     1.6999071931     1.1206124115
 F      2.3959529689     2.2165432645     1.8166239705
 H      0.1788030783     4.7977860141     0.5203374772
 F     -0.5769226677     4.8091627849     0.0010705267
 H     -0.7137994100     3.4924382400    -0.9917846232
 F     -0.7053648763     2.7474398081    -1.5263827854
 H      0.5622084597     1.7367970865    -2.0779797677
 F      1.3085737899     1.2192964030    -2.2045532105
 H      1.8433326712     3.7914723872     1.6783980340
 F      1.5134345727     4.6136451913     1.4415687181
          12
Energy: -45.745751271154745 Kcal/mole
 H      2.6284995354     1.9584931659    -0.8617926768
 F      3.0944356921     1.8094867361    -0.0861706156