          24
Energy: -95.26949065823024 Kcal/mole
 H     -2.7152425435     6.4769077575     1.4037070960
 F     -3.0624017147     6.9194424753     0.6794609131
 H      1.1176430888     2.1984197518     4.7825797849
 F      1.0007110303     2.9970759866     4.3474199150
 H     -1.7122199591     4.8551546509     2.6588494268
 F     -2.1448605954     5.6611400255     2.7228701723
 H     -3.4545346914     3.5064101593    -0.2323027707
 F     -2.6786629082     3.5011269875     0.2564549036
 H     -1.8449033169     2.0301116567     0.4912912534
 F     -1.4809805164     1.1905564946     0.5512606204
 H     -4.4577675637     6.5131222175    -0.0887590735
 F     -5.2063249071     6.1647780943    -0.4877669373
 H      1.1149485826    -0.8159758681     2.1920011289
 F      1.6201890914    -1.5701728914     2.3216463308
 H     -0.3333496613     0.8810213579     1.6886664415
 F      0.3160010603     0.6294504633     2.2852774750
 H      1.9220057208     0.0306473157     5.2108362007
 F      1.3134045530     0.6682539808     5.4637222602
 H     -0.1719418825     3.2613617465     3.1565599218
 F     -0.8634078308     3.4444745938     2.5827711737
 H     -5.0967947734     4.5855007101    -0.9674294523
 F     -4.8337075149     3.7138856841    -1.0767973673
 H      2.5194901783    -1.4082013796     3.7390607506
 F      2.9094809235    -1.0827092311     4.5025075921
          24
Energy: -95.17847426805321 Kcal/mole
 H     -2.4095595682     6.3670338233     1.3459973612
 F     -2.7270845588     6.7377239908     0.5696883505
 H      1.0890442617     2.1090433391     4.9268281904
 F      0.9506943251     2.9277100330     4.5375556133
 H     -1.5153944624     4.8308628759     2.7252006307
 F     -1.8605571199     5.6803105782     2.7114042219
 H     -3.6130139248     3.3503807897    -0.0777346119
 F     -2.8346594670     3.3235021637     0.4063427348
 H     -2.0373203236     1.9200729821     0.6061413653
 F     -1.6410410454     1.0974621534     0.6907768077
 H     -4.2699423353     6.4017441899    -0.0254198642
 F     -5.1095100937     6.1718899932    -0.3138328098
 H      1.0956583140    -0.7661318409     2.2832994851
 F      1.6002041067    -1.5225392358     2.4023389576
 H     -0.4060395701     0.8699794881     1.7703520290
 F      0.2909332438     0.6630160856     2.3291758355
 H      1.8661825707    -0.0569338692     5.4119342732
 F      1.3231245346     0.6225225414     5.7023063713
 H     -0.1833150500     3.1073405847     3.3741973483
 F     -0.8499074142     3.2963560730     2.7735170963
 H     -5.1717189640     4.5595569467    -0.7671831512
 F     -4.9910650205     3.6712698851    -0.9057445053
 H      2.3950746034    -1.4169719133     3.8408239438
 F      2.7422390436    -1.2052607481     4.6627389236
          24
Energy: -95.27784322409934 Kcal/mole
 H     -2.5223352031     6.4646505111     1.3273896156
 F     -2.8490866445     6.8556905594     0.5650181994
 H      1.1716354370     2.1935118535     4.7518474452
 F      1.1055219756     2.9700501185     4.2686225149
 H     -1.5932153115     4.8186856974     2.5781395367
 F     -1.9718478414     5.6516084324     2.6395082973
 H     -3.8848716746     3.3379147764     0.2318481052
 F     -3.0696200231     3.2665314234     0.6455607611
 H     -2.2565934374     1.8064944658     0.8544813089
 F     -1.8394472742     0.9962330015     0.9562380679
 H     -4.3409968599     6.4593951099    -0.0278173921
 F     -5.1579793912     6.1825548171    -0.3389250839
 H      0.9534733365    -0.8679834061     2.3266364278
 F      1.4427067699    -1.6402945458     2.3978765225
 H     -0.5121501733     0.7837109139     1.9094163218
 F      0.2066223804     0.6068993891     2.4507043233
 H      1.8164054749     0.0609531942     5.3284083621
 F      1.2960276580     0.7531532435     5.6299958611
 H     -0.0898004843     3.2554151983     3.1358643378
 F     -0.7756328334     3.3965181425     2.5437385504
 H     -5.3444678667     4.5583431399    -0.5225803366
 F     -5.2926512162     3.6428524614    -0.5315721283
 H      2.3032651266    -1.4632330348     3.8213732867
 F      2.6774351184    -1.1906400328     4.6129406386
          24
Energy: -95.1586436521759 Kcal/mole
 H     -2.4518976635     6.2770353490     1.2447146455
 F     -2.7190774336     6.6507087270     0.4510697772
 H      1.1774678527     2.1561752526     4.8593091498
 F      1.0799113548     2.9162173193     4.3556150098
 H     -1.5833875503     4.8015106094     2.6906679095
 F     -1.9777618483     5.6293671607     2.6872850620
 H     -3.9114758032     3.2853554923     0.1839218502
 F     -3.1089322732     3.3138118651     0.6266442432
 H     -2.2656508473     1.8747541768     0.8362954878
 F     -1.9355081633     1.0202950998     0.8786569555
 H     -4.2747878301     6.3040424767    -0.0956168359
 F     -5.1201742428     6.0340779163    -0.3265496169
 H      0.7792344927    -0.9922193926     2.3872624458
 F      1.4014848597    -1.6653322505     2.4120124209
 H     -0.7317124897     0.6979024549     1.9325420243
 F     -0.0705820639     0.4193105280     2.5036655647
 H      1.9907506016     0.0992103813     5.2703894501
 F      1.4302675996     0.7267762765     5.6349561130
 H     -0.1591642195     3.1385999347     3.2738246061
 F     -0.8747938198     3.2839770779     2.7191816927
 H     -5.3801965387     4.4414591608    -0.5906051381
 F     -5.3238895309     3.5264695579    -0.6132446487
 H      2.4265764134    -1.3863269915     3.7043532701
 F      2.8593773313    -1.0754631811     4.4506347565
          24
Energy: -95.30796243663816 Kcal/mole
 H     -2.4069375936     6.3189114461     1.2265186287
 F     -2.7379588291     6.6906938308     0.4563940932
 H      1.2298649008     2.0823540558     4.9144871825
 F      1.0623023217     2.8331495681     4.4153700813
 H     -1.4119674689     4.7820480331     2.5873158259
 F     -1.8236744203     5.6012559968     2.6041888346
 H     -3.9380753865     3.2481336918     0.3703345632
 F     -3.1536640655     3.2336700266     0.8450752102
 H     -2.4455361765     1.7439946105     1.0372205620
 F     -2.0719406719     0.9076402009     1.0799604792
 H     -4.2544347451     6.4200385220    -0.1607835669
 F     -5.0680649741     6.1335183574    -0.4719122311
 H      0.6170602206    -1.0802338602     2.5776363625
 F      1.1965500929    -1.7905821968     2.5996756122
 H     -0.8914141290     0.6000594453     2.1700710742
 F     -0.2713141208     0.3093757236     2.7798808428
 H      2.1098220591     0.0420893564     5.3577217375
 F      1.5938123991     0.6883397451     5.7539331280
 H     -0.0800177866     3.0475827158     3.2310722456
 F     -0.6829762212     3.2528505694     2.5713789575
 H     -5.3120676738     4.4620406495    -0.5616548677
 F     -5.2726991827     3.5494521380    -0.4809001113
 H      2.3744919591    -1.4484735423     3.7377274846
 F      2.8999116153    -1.0760470463     4.3905074552
          24
Energy: -95.24225922621531 Kcal/mole
 H     -2.3969886677     6.2418292351     1.2973238562
 F     -2.6992991020     6.5236324103     0.4787370424
 H      0.9325982399     2.0551529955     5.0107575283
 F      0.7212582697     2.8831844990     4.6782094171
 H     -1.6125921814     4.7861469865     2.7748627938
 F     -1.9927525223     5.6206013116     2.7821493954
 H     -4.1953594908     3.3344490572     0.8211634127
 F     -3.3403603291     3.2362278846     1.1377357340
 H     -2.6415752319     1.7379878137     1.2852336711
 F     -2.3094373223     0.8902566687     1.3944367604
 H     -4.2822886194     6.4362743039     0.0087101307
 F     -5.1376637245     6.2367561895    -0.2547570430
 H      0.5728911781    -1.0197622717     2.6656486224
 F      1.1928991369    -1.6947430336     2.6359821073
 H     -1.0267806880     0.5973681460     2.3904419652
 F     -0.3130460649     0.3717284417     2.9201198028
 H      2.0897935679     0.0868611809     5.2643624044
 F      1.4556844122     0.6171155312     5.6613824324
 H     -0.2846587232     3.1214272244     3.4264362677
 F     -0.8778590833     3.2976754335     2.7497244371
 H     -5.6000088182     4.6881750085     0.0045083390
 F     -5.6507462418     3.7943420065     0.2029454285
 H      2.4299141883    -1.2360751082     3.6399009362
 F      2.9869973861    -0.8465763315     4.2553991195
          24
Energy: -95.24171615546229 Kcal/mole
 H     -2.5143473873     6.3173253776     1.3303798971
 F     -2.7906418056     6.6609267414     0.5263348131
 H      0.8442998840     1.9628747824     5.0620655964
 F      0.6233973096     2.7960092536     4.7490512110
 H     -1.6353947903     4.8578845027     2.7437482976
 F     -1.9993384384     5.6995126730     2.7535484976
 H     -4.0165415382     3.2846692026     0.3716211145
 F     -3.2208798358     3.2329284199     0.8245387082
 H     -2.3839699148     1.8125059748     0.9894994734
 F     -1.9735226892     0.9925514609     0.9993315681
 H     -4.3653641660     6.4501445082     0.0070782706
 F     -5.2182393490     6.2373136805    -0.2540652933
 H      0.5461504319    -0.9620418314     2.5702064559
 F      1.1516686999    -1.6506053297     2.5593927686
 H     -0.9251605697     0.6947197919     2.2019589191
 F     -0.3212765622     0.4337410819     2.8407884883
 H      1.9503612269    -0.0385182625     5.2907621768
 F      1.3035639118     0.4942534999     5.6631819430
 H     -0.3555312854     3.1083456837     3.4599997447
 F     -0.9278489756     3.3585369271     2.7886236927
 H     -5.4553830381     4.6209859705    -0.3820184394
 F     -5.4001479892     3.7062172591    -0.4142099601
 H      2.3228770914    -1.3458119632     3.6480624797
 F      2.8634112025    -1.0502345460     4.3272869384
          24
Energy: -95.26508807811516 Kcal/mole
 H     -2.6718991855     6.4628068392     1.4899766271
 F     -2.9095334213     6.8840324053     0.7108822859
 H      0.8171112558     1.9921120121     5.1091391754
 F      0.5542568956     2.8072235945     4.7814355078
 H     -1.8318308327     4.8760606262     2.8381733233
 F     -2.2386743797     5.6965589735     2.8845391544
 H     -4.0470795671     3.4437715510     0.5056006843
 F     -3.2591286214     3.4314709917     0.9745047294
 H     -2.4746756406     1.9675259072     1.0616187566
 F     -2.1135848263     1.1282462553     0.9834389014
 H     -4.3706408968     6.5572634279    -0.0053981309
 F     -5.1636453328     6.2584629972    -0.3557569001
 H      0.6964007300    -0.8686244240     2.3988483390
 F      1.3168463239    -1.5437206721     2.3853828012
 H     -0.8851017072     0.7611983162     2.0518749341
 F     -0.2398228756     0.4931174530     2.6457073013
 H      1.9324034245    -0.0551824535     5.2805296051
 F      1.3136947030     0.4861735432     5.6867588542
 H     -0.4834295662     3.1218971003     3.5015419471
 F     -1.0357574604     3.3778446442     2.8157476980
 H     -5.4803493625     4.6152044514    -0.3663323701
 F     -5.4325897648     3.7027094478    -0.2891255741
 H      2.3894802333    -1.3270196051     3.6034187328
 F      2.8900479927    -1.0285459073     4.3113978074
          24
Energy: -95.1218505680061 Kcal/mole
 H     -2.6442974332     6.3540303054     1.4394421023
 F     -2.9770964582     6.6410272486     0.6346026378
 H      0.7451414344     1.9894940589     5.1589376202
 F      0.4889100510     2.8379872706     4.9237913936
 H     -1.6916922403     4.9722013754     2.8794074639
 F     -2.1162135411     5.7850155827     2.8774762381
 H     -4.1065012950     3.4517466331     0.5516126916
 F     -3.3162022298     3.4096307083     1.0148001659
 H     -2.4629733470     1.9537448932     1.1482016689
 F     -2.1073188562     1.1086670030     1.1637658155
 H     -4.5864098164     6.4360471789     0.2940632838
 F     -5.4548677760     6.2099599008     0.1055047646
 H      0.7530954836    -0.7304179854     2.4205424361
 F      1.3486157398    -1.4143304914     2.2844971918
 H     -0.8668427426     0.7883131556     2.1850066619
 F     -0.2028288548     0.5671557088     2.7775131518
 H      2.0214633285     0.0650768561     5.1010717121
 F      1.3709325546     0.4973421389     5.5815354855
 H     -0.4263986300     3.2514300303     3.5984524801
 F     -0.8976364185     3.5062370920     2.8542097051
 H     -5.6434258254     4.6001156371    -0.0935484692
 F     -5.5146743424     3.6951360703    -0.1665144837
 H      2.5588351144    -1.1112971783     3.3805738402
 F      3.0360119224    -0.7557076940     4.0782466951
          24
Energy: -95.26353468628751 Kcal/mole
 H     -2.6669570732     6.3610785503     1.3860191612
 F     -2.9882633137     6.6380265405     0.5730301634
 H      0.9049001307     1.9339905321     4.9866914132
 F      0.7147119054     2.7755160656     4.6759628897
 H     -1.7739022900     4.9141077959     2.8552273484
 F     -2.1329920192     5.7576728123     2.8367441295
 H     -4.0197753344     3.4154512404     0.3089037280
 F     -3.2366595315     3.3809863379     0.7847511928
 H     -2.4090458813     1.9472673173     0.9743769303
 F     -1.9980114357     1.1277279530     0.9915500177
 H     -4.5955264974     6.4892526679     0.1210432339
 F     -5.4415885240     6.2316722156    -0.1212796036
 H      0.9949822539    -0.5497000836     2.1077637110
 F      1.5988285428    -1.2342378467     2.0202039574
 H     -0.7333273267     0.8393032724     1.9960035425
 F     -0.0031408617     0.6828564534     2.5282075627
 H      1.9588971750    -0.0997111127     5.1682466085
 F      1.3401512619     0.4392821529     5.5775493749
 H     -0.4199244378     3.1581837141     3.4873869864
 F     -1.0381314163     3.3940841952     2.8525168464
 H     -5.5413158735     4.6120366106    -0.3837431118
 F     -5.4150703851     3.7059960060    -0.4473159017
 H      2.5506765519    -1.1637264555     3.3858387291
 F      2.9220486416    -1.0328109504     4.2139890183
          24
Energy: -95.26778976912098 Kcal/mole
 H     -2.6504601287     6.3098792457     1.3904375665
 F     -3.0131273180     6.7171399749     0.6532129005
 H      1.2012722041     2.1022778807     4.9192410687
 F      0.9248948157     2.8798901656     4.5194615375
 H     -1.7816125108     4.7899853238     2.9161247697
 F     -2.0220022417     5.6592091464     2.7501376513
 H     -4.0426948919     3.3544848917     0.5303487240
 F     -3.2150086856     3.3297831959     0.9243212739
 H     -2.4986295001     1.8598180183     1.0819224696
 F     -2.0943043748     1.0369456928     1.0989908358
 H     -4.6033026519     6.4813588114     0.2425274591
 F     -5.4441881479     6.1859065702     0.0268690351
 H      0.8720931491    -0.7342535727     2.1338928081
 F      1.4859619813    -1.4134559378     2.0815649556
 H     -0.7656200100     0.7951432646     2.0443116838
 F     -0.0030634516     0.6041491792     2.5164533516
 H      2.2024661414     0.0254614068     5.0811107750
 F      1.6537554929     0.6045278566     5.5333139053
 H     -0.4526115279     3.0392385257     3.6172925473
 F     -1.2333171765     3.2158463366     3.1698583383
 H     -5.5812333768     4.5431080592    -0.2102995188
 F     -5.4943796014     3.6302518593    -0.2165429248
 H      2.5707446066    -1.2037444497     3.3379309649
 F      3.0414079382    -0.9645291727     4.0876916464
          24
Energy: -95.27720385540515 Kcal/mole
 H     -2.6713407021     6.3029840070     1.4599450169
 F     -3.0035035245     6.6203493797     0.6663228904
 H      1.0371870674     1.9805496613     5.0383449733
 F      0.7971419864     2.7861102469     4.6718214379
 H     -1.7899427368     4.7811435864     2.9905163907
 F     -2.0995501271     5.6388859295     2.8940263048
 H     -4.1854803916     3.3875123153     0.7750658255
 F     -3.3215843737     3.3495933310     1.0802458066
 H     -2.5201501722     1.8885992185     1.1503622918
 F     -2.1243318928     1.0614463543     1.1444437705
 H     -4.5541006596     6.4384990149     0.1770704112
 F     -5.4090996547     6.1843870985    -0.0357507632
 H      0.9147174275    -0.6991621005     2.1047885532
 F      1.4738384743    -1.4253482697     2.0743533299
 H     -0.7575285107     0.8168899032     2.0812554310
 F      0.0414714278     0.6499135044     2.4991154321
 H      2.0977439599    -0.0660743001     5.1393381273
 F      1.5618462394     0.4953714460     5.6276836068
 H     -0.4885885953     3.0190535340     3.6865961737
 F     -1.2356633013     3.1971226551     3.1855375227
 H     -5.7213750936     4.5497772347     0.0568306825
 F     -5.6758779908     3.6457439019     0.2036051589
 H      2.5089670592    -1.2842201225     3.3525323759
 F      2.9823383001    -1.0259415340     4.0942202072
          24
Energy: -95.25116984754472 Kcal/mole
 H     -2.6774982092     6.2484803817     1.4979151512
 F     -3.0432040686     6.5572695872     0.7157403300
 H      1.0860342295     2.0022436232     5.0151344748
 F      0.8257937142     2.8171283852     4.6847911704
 H     -1.8347804443     4.7624393350     3.0117589670
 F     -2.1243353958     5.6287931154     2.9312725874
 H     -4.2993522334     3.3320555566     0.8260534559
 F     -3.4516431912     3.2715185494     1.1704567813
 H     -2.6093090743     1.8197327026     1.2252870625
 F     -2.1832244422     1.0084626745     1.1909093409
 H     -4.6885633634     6.4782306259     0.3523790806
 F     -5.5680930428     6.2907029860     0.1730750725
 H      0.8071479824    -0.7710384120     2.3499741691
 F      1.4249901380    -1.4309994564     2.1963138598
 H     -0.8538204864     0.7733168989     2.1934251491
 F     -0.1049681333     0.5644031009     2.6797009744
 H      2.2560167223    -0.0164191628     5.0521612054
 F      1.6555188176     0.5259333869     5.4836064259
 H     -0.5389218786     3.0261924183     3.7412870043
 F     -1.2747424662     3.2097974391     3.2257811759
 H     -5.7934924145     4.6353563048     0.0643783690
 F     -5.7409023482     3.7218918233     0.1252546855
 H      2.6021163804    -1.2386172043     3.3297940144
 F      3.1302617337    -1.0098156931     4.0436576948
          24
Energy: -95.24331868349654 Kcal/mole
 H     -2.7911538598     6.1717059395     1.5475973367
 F     -3.0868905952     6.5534028816     0.7680229479
 H      0.9510088695     1.9640028620     5.1010069969
 F      0.6511779088     2.7920846428     4.8455251789
 H     -2.0579858923     4.6495429887     3.0939244566
 F     -2.3722994934     5.5079232175     3.0212653693
 H     -4.3289843697     3.3307358386     0.5571261006
 F     -3.5519651159     3.1996984775     1.0261242767
 H     -2.6710137377     1.7611899841     1.0934498999
 F     -2.2108180847     0.9684118419     1.1181840508
 H     -4.6941719116     6.5012209666     0.3726379914
 F     -5.5490071566     6.3034617460     0.1061103295
 H      0.8730957681    -0.7398426968     2.1370627475
 F      1.3737932201    -1.5080764813     2.1398759253
 H     -0.7609165100     0.8143042116     1.9415394698
 F      0.0496871658     0.6711282719     2.3456574367
 H      2.0731917509    -0.1494850934     5.0795744768
 F      1.4945540870     0.4103622763     5.5184803627
 H     -0.6402955352     3.0091876313     3.8184495865
 F     -1.3350128377     3.1560548333     3.2382023163
 H     -5.7401170118     4.6918236005    -0.1995887157
 F     -5.6459744198     3.7832438991    -0.2802676998
 H      2.4601757297    -1.3745735602     3.3797727042
 F      2.9639434935    -1.1173500405     4.1015365860
          24
Energy: -95.3280476475036 Kcal/mole
 H     -2.8167409602     6.1955486775     1.6061195418
 F     -3.0690788712     6.5287179413     0.7899009312
 H      1.0239901655     1.9569020033     4.8904941358
 F      0.8170261501     2.7952581763     4.5819267630
 H     -2.0899857256     4.6740038325     3.1263266484
 F     -2.3787212226     5.5411369530     3.0514870583
 H     -4.2344077967     3.2935579979     0.4949749207
 F     -3.4973484656     3.2151187356     1.0348636358
 H     -2.6725428857     1.7776169724     1.1485275854
 F     -2.2401747673     0.9700645522     1.1060317165
 H     -4.6433174237     6.4233002082     0.2145282585
 F     -5.4912398343     6.2124189304    -0.0637623672
 H      0.8517117980    -0.7467162750     2.0537996680
 F      1.4625323904    -1.4283469217     1.9975247588
 H     -0.8433368831     0.7477123862     1.9470902102
 F     -0.0464400739     0.6012283972     2.3764931870
 H      1.9215224019    -0.1760491983     5.0144906809
 F      1.3648182532     0.4254902742     5.4257324027
 H     -0.5631500864     3.0271392230     3.6480025841
 F     -1.3616185516     3.1482820135     3.2136507287
 H     -5.6320548288     4.5954773972    -0.3750940743
 F     -5.5379523318     3.6857352182    -0.4414483335
 H      2.4702421166    -1.3730418992     3.3068221012
 F      2.8618715041    -1.2126869878     4.1203340712
          24
Energy: -95.25527512573758 Kcal/mole
 H     -2.7632703247     6.2902656527     1.7058757569
 F     -3.0712050512     6.6679032227     0.9290520511
 H      1.1017093999     1.9409132984     4.7811696007
 F      0.8682793574     2.7449121319     4.4070235182
 H     -1.9278791477     4.7200956838     3.1262652983
 F     -2.2247700858     5.5875523355     3.1100255831
 H     -4.2987857611     3.3877684724     0.5115969459
 F     -3.5636141222     3.3126049436     1.0545169264
 H     -2.7127028077     1.8319200567     1.1622177789
 F     -2.3061436090     1.0113348051     1.1149053836
 H     -4.6105398508     6.4343367975     0.2520769499
 F     -5.4265751946     6.1934710545    -0.0899157567
 H      0.7429968930    -0.8026916952     2.1280880614
 F      1.3277701833    -1.5055001642     2.0574519874
 H     -0.9601132557     0.7138630496     2.0020605371
 F     -0.1909636355     0.5319292083     2.4670314385
 H      1.9693467043    -0.1842260711     4.9895126477
 F      1.4459394073     0.4386736752     5.4125134839
 H     -0.5634977078     2.9523833139     3.5823534402
 F     -1.3584605326     3.1484516932     3.1694608418
 H     -5.6201141982     4.5884446458    -0.4496021043
 F     -5.5084275825     3.6795947545    -0.4986630347
 H      2.3572991709    -1.4590122501     3.3393619086
 F      2.8403129568    -1.2213397986     4.0817219886
          24
Energy: -95.39749389498937 Kcal/mole
 H     -2.9025430471     6.2244719519     1.6447177449
 F     -3.2094112798     6.6339780985     0.8837804258
 H      1.0881908342     1.9552577187     4.7671471514
 F      0.9404518215     2.7612420680     4.3555023861
 H     -1.9895210775     4.6704682354     3.0930585969
 F     -2.3609154164     5.5088816579     3.0887950349
 H     -4.2208850820     3.3414000517     0.5197187946
 F     -3.4849950820     3.2995860242     1.0652520154
 H     -2.6785847766     1.8341120212     1.0922393471
 F     -2.2566838332     1.0204440035     1.0633784563
 H     -4.7019857028     6.4445633572     0.1919466303
 F     -5.4997054161     6.1722149050    -0.1691054152
 H      0.5887657820    -0.9713845205     2.3036904451
 F      1.1860716473    -1.6639607945     2.2369610817
 H     -0.9890537984     0.6495470807     2.0622726391
 F     -0.2858569222     0.3959557393     2.5933984103
 H      1.9292439725    -0.1413768137     5.0832645314
 F      1.3472959951     0.4663896272     5.4477443044
 H     -0.4801203088     3.0027550435     3.4728030231
 F     -1.2599000029     3.1713669922     3.0206939220
 H     -5.5792254357     4.5400717102    -0.4560658071
 F     -5.4835123892     3.6281482622    -0.4671850514
 H      2.2855697418    -1.4879107106     3.4498701335
 F      2.7682580730    -1.2533031934     4.1934158871
          24
Energy: -95.28207420176284 Kcal/mole
 H     -2.8776877388     6.3320657210     1.7353177563
 F     -3.1668943786     6.7207422046     0.9567427049
 H      0.9733041060     2.0602707520     4.9445792096
 F      0.6826391229     2.8857115990     4.6706261558
 H     -2.0287995775     4.6927011207     3.0720255969
 F     -2.4032317794     5.5294135865     3.0965567171
 H     -4.2322209163     3.2852543148     0.5726866984
 F     -3.5084990650     3.2473550576     1.1345401741
 H     -2.8068546922     1.7375929887     1.4584390159
 F     -2.5303468185     0.8643134097     1.5010438585
 H     -4.6857524455     6.4065819428     0.3240911184
 F     -5.4966092325     6.1480617618    -0.0173288384
 H      0.6560456790    -0.9392081246     2.2093904348
 F      1.2144629219    -1.6663950499     2.1933169025
 H     -1.0454392995     0.5888445419     2.1900945702
 F     -0.2061503499     0.4269872928     2.5221868617
 H      2.0043781315    -0.0742160913     5.0766763959
 F      1.4891451700     0.5623756099     5.4891991241
 H     -0.5786381750     3.0896453622     3.6400879161
 F     -1.2737081291     3.2169778835     3.0556623965
 H     -5.6435604044     4.5086535404    -0.2974611061
 F     -5.5513410827     3.5983224394    -0.3581396299
 H      2.3097307805    -1.5047519426     3.4489081842
 F      2.7844776880    -1.2284679998     4.1831912065
          24
Energy: -95.41705270267468 Kcal/mole
 H     -2.8602081208     6.1623356150     1.7025608161
 F     -3.1077180487     6.5264911178     0.8981861489
 H      1.0553644389     1.9897580533     4.8763908006
 F      0.7888032892     2.7786466368     4.4923478911
 H     -2.0878275636     4.6694109635     3.2049689773
 F     -2.4594313683     5.5049667537     3.1368064225
 H     -4.3740890861     3.1930131982     0.6540272885
 F     -3.6254123047     3.1486886503     1.1816705500
 H     -2.8480893214     1.6541792720     1.3302452259
 F     -2.4963550435     0.8084057887     1.3731312700
 H     -4.6305575886     6.3276991102     0.2990310155
 F     -5.4691714708     6.1134014188    -0.0037762763
 H      0.5335614396    -1.0369171928     2.3209391574
 F      1.1316832779    -1.7256607611     2.2272825312
 H     -1.1129031670     0.5680886249     2.2445264314
 F     -0.3303646924     0.3717288198     2.6803765923
 H      2.0429285860    -0.0913268459     5.0478979863
 F      1.5392944919     0.5283070078     5.4987811048
 H     -0.6243345718     2.9330318697     3.6357485864
 F     -1.4081176059     3.1135987495     3.1953297433
 H     -5.7048692268     4.4744279412    -0.2815735116
 F     -5.6474454134     3.5592505299    -0.2880396910
 H      2.2960696435    -1.4824122006     3.3737518513
 F      2.8100701998    -1.1760919048     4.0686333553
          24
Energy: -95.37279303578393 Kcal/mole
 H     -2.8270520299     6.1383917684     1.6673072394
 F     -3.0372220270     6.5013641337     0.8518511496
 H      1.1039290835     2.0014546267     4.8464737537
 F      0.8387363836     2.8149445325     4.5166313594
 H     -2.1261699106     4.6260449154     3.1287826453
 F     -2.4859134418     5.4695301549     3.1262841398
 H     -4.3098787468     3.2831854486     0.5968830227
 F     -3.5768801533     3.2007287977     1.1416792806
 H     -2.6708467449     1.7776084870     1.1666485839
 F     -2.2457694167     0.9657413522     1.1339374172
 H     -4.5693529263     6.3447455509     0.2816038338
 F     -5.4211445608     6.1379192959     0.0122287950
 H      0.5034711675    -0.9869723542     2.3991537002
 F      1.0583507111    -1.7153005774     2.3487980514
 H     -0.9892567950     0.6880227771     2.1636258609
 F     -0.2762879068     0.4423545117     2.6853647495
 H      2.1577592888    -0.0182658014     5.0272399423
 F      1.5949057201     0.5484729324     5.4776753625
 H     -0.5601290576     3.0028220605     3.5784114383
 F     -1.3244416635     3.1329125178     3.0887261176
 H     -5.6748785439     4.5259692571    -0.3089501275
 F     -5.5776828720     3.6152330282    -0.3536885080
 H      2.3184210934    -1.3609481988     3.3621131144
 F      2.9109119741    -1.0511124231     3.9896841050
          24
Energy: -95.34877679448115 Kcal/mole
 H     -2.7798382322     6.2081740207     1.6752920410
 F     -2.9959325979     6.5402107854     0.8482830858
 H      1.0766753197     2.0212069139     4.9027668350
 F      0.8703250694     2.8362399393     4.5366661088
 H     -1.9322761931     4.7125612627     3.0834551835
 F     -2.3547196045     5.5258450102     3.1150797039
 H     -4.2525895322     3.2705617572     0.5961319092
 F     -3.5268528501     3.2391472357     1.1557821536
 H     -2.7251825339     1.7759286662     1.2413210190
 F     -2.3210583791     0.9527819233     1.2398694746
 H     -4.4864290904     6.3425105538     0.1508093291
 F     -5.2960567976     6.1035048828    -0.2073362626
 H      0.4447390098    -1.1165856354     2.5352849726
 F      1.0216955939    -1.8291316546     2.5183064384
 H     -1.0550614271     0.5897052034     2.2169704390
 F     -0.3492931844     0.3010688538     2.7263516766
 H      2.0866764631    -0.0602074754     5.0435765033
 F      1.5211738589     0.5016463132     5.4968050603
 H     -0.4026470613     3.0822199070     3.5196151681
 F     -1.1308962494     3.2506207640     2.9884059144
 H     -5.5432147066     4.4965126559    -0.3804579788
 F     -5.4873190027     3.5812813212    -0.3912410380
 H      2.3007739523    -1.4199423002     3.4727727011
 F      2.9074396057    -1.0540288284     4.0549695029
          24
Energy: -95.31418984440884 Kcal/mole
 H     -2.7985601518     6.1741319687     1.7261959489
 F     -2.9888223200     6.5242105008     0.9002817108
 H      1.0630289894     1.9606600224     4.9252163557
 F      0.7915492002     2.7700407982     4.5904171865
 H     -2.0799826431     4.6041960590     3.0950374157
 F     -2.5067254620     5.4128165165     3.1651268039
 H     -4.2628545933     3.2733268170     0.6334915920
 F     -3.5350086862     3.2185825345     1.1885883394
 H     -2.7214858928     1.7152318818     1.2520030934
 F     -2.3489616586     0.8794365888     1.1923296221
 H     -4.5121278439     6.4274078771     0.2484938833
 F     -5.3150527595     6.1985219737    -0.1307314101
 H      0.5533166682    -1.0466504683     2.4151476356
 F      1.1692017691    -1.7222783471     2.3437227664
 H     -1.0635414955     0.5554987898     2.1953637603
 F     -0.3664250464     0.3088763814     2.7376690654
 H      2.1301754318    -0.1027671770     5.0973122703
 F      1.5700253193     0.5030531239     5.4974405179
 H     -0.5075882462     2.9732798604     3.5564952572
 F     -1.2442656349     3.1506098424     3.0400172785
 H     -5.5097532625     4.5762057350    -0.3223899472