          2
Energy: -0.019999999996412166 Kcal/mole
 He    -5.0927800717     0.6002445216    -1.9599425831
 He    -4.8578225841     2.2032148480    -4.3277473489
