          2
Energy: -9.023429579438606E-5 Kcal/mole
 He     0.8127858345    -3.8898563843     0.1265539619
 He    -3.2724412674     1.6647842638    -3.7715126408
