          2
Energy: -0.01999999998152907 Kcal/mole
 He    -1.4181953668     4.5056401456    -0.8227349653
 He    -3.1886593339     2.5661785478    -1.9782687969
