          2
Energy: -0.019999999996634994 Kcal/mole
 He    -1.0621851882     5.1663061190     0.5233045080
 He    -2.2060697121     6.9543189290     2.4535347013
