          2
Energy: -0.019999999997158093 Kcal/mole
 He    -5.4811521741    -2.3943614404    -0.7670241206
 He    -6.3849989246    -4.0033003000    -2.9637527231
