          26
Energy: -74.38361748763899 Kcal/mole
 H     -3.9960008113    -0.1750463789    -5.6398905580
 F     -4.1288561851    -1.0351011445    -5.9289307799
 H     -4.5144968878    -4.6025645925    -4.0961244569
 F     -4.4325369992    -3.7395649240    -3.7971208635
 H      0.3500904714     0.9141535089    -2.2258381890
 F     -0.1474665678     0.5863880484    -1.5287759280
 H      1.3812055034     0.3540700124    -3.8903184406
 F      1.4428677171     1.1701131808    -3.4766031778
 H     -2.6813729265    -2.8353904765    -3.9325082158
 F     -1.8443351724    -2.4732820061    -4.0280815071
 H     -2.9662043368     4.9022413919    -1.6182886836
 F     -3.1543600190     5.7321248305    -1.2765579158
 H     -4.0875140047    -0.0063368224    -1.2881786712
 F     -4.8947058151     0.1621118932    -0.8869861845
 H     -4.7506131042    -2.4199195341    -7.2769111253
 F     -4.7116721136    -3.3256791574    -7.4146503865
 H     -3.8526790748     2.4368605443    -5.0282473300
 F     -4.0725772113     1.8228827845    -5.6728907354
 H     -4.6220546417     2.3175526103    -2.2586470793
 F     -4.0291221931     2.9230892369    -2.6088548823
 H     -4.7849904483    -4.7049182862    -6.3820023151
 F     -4.6960011055    -5.4400180336    -5.8410787916
 H     -1.9416613200     0.0809428673    -1.8828522272
 F     -2.7406622100    -0.0380279808    -2.3168251700
 H     -0.4886714751    -1.3709207429    -4.5386088318
 F      0.1774998927    -0.8100175546    -4.8258235983
          26
Energy: -81.65411485243504 Kcal/mole
 H     -2.9288107104    -2.8734229456    -6.8269432351
 F     -3.3418134136    -3.6534550396    -7.0756754194
 H      0.9046326459    -4.2482697542    -3.3135728295
 F      1.4704209242    -4.3535692368    -2.5996508148
 H      1.7439758866    -0.0502649115    -6.3232363908
 F      1.4711875820    -0.8137859550    -5.8948543686
 H      2.1711620156     1.7302199083    -5.4200057731
 F      2.2317823364     1.6511774115    -6.3315793908
 H      0.7515604703    -3.0476368198    -1.1163867976
 F      0.8458032020    -2.1942022932    -0.7944290110
 H      2.4930996677     1.1714813581    -3.1707989158
 F      2.3510861113     1.9421204045    -3.6470725870
 H     -4.9750496139    -1.1772630146    -3.7041328741
 F     -5.2798481663    -0.3282666749    -3.8690330189
 H     -3.9260549757    -4.4568361380    -5.4892223429
 F     -4.1333492316    -4.9698776524    -4.7579860637
 H     -2.3175126482    -0.7293983267    -5.5274399795
 F     -2.3306615005    -1.4234978877    -6.1265575866
 H     -3.9894380641     0.5437364705    -4.4417506930
 F     -3.1448418930     0.7711860588    -4.7170922855
 H     -4.5548247175    -3.7485909392    -3.7028495941
 F     -4.7219018189    -3.0959253025    -3.0807548996
 H      0.8300669109    -2.4603249334    -5.1005511614
 F      0.2605535394    -3.0318178495    -4.6647308239
 H      1.9469257739    -0.7539093538    -1.3774098779
 F      1.9005633010    -0.0368766547    -1.9471498444
          26
Energy: -77.63036563465045 Kcal/mole
 H     -1.7367653338    -2.8855181932    -4.2920541715
 F     -2.3848223808    -3.3028117358    -3.7952874625
 H      4.2634683083    -1.9610471294    -1.9334248286
 F      4.4318819798    -1.3154552092    -1.3043485948
 H      2.8264668071    -3.4507622496    -5.3283161965
 F      3.5799495529    -3.9321675898    -5.5317901509
 H      1.5289716027    -1.0370497791    -4.8402285089
 F      2.0699505173    -1.7491512235    -4.6373927457
 H      3.2877014442     0.0283620554    -2.2602701865
 F      2.6317875142     0.4563100613    -2.7372674829
 H      1.4581757310     1.7696714745    -4.9462274116
 F      1.2144039396     0.9655309480    -5.3134090116
 H     -5.6611234083     0.3171044012    -4.4004926798
 F     -5.2203847874     0.3292753132    -5.2045389079
 H     -3.5066824839    -2.0618156390    -3.3746226654
 F     -3.9952000719    -1.5415937318    -2.7987678804
 H     -1.1884805999    -0.8953871585    -5.7868650003
 F     -0.9278459219    -1.3848113548    -5.0565071971
 H     -3.9563946044     0.6017102981    -6.1730743112
 F     -3.2038610420     0.3705379164    -6.6433312275
 H     -5.2853006397    -0.7267354562    -2.9207201541
 F     -6.1283689917    -0.4020664963    -3.0779296331
 H      4.3482160525    -3.6547725522    -4.0926393021
 F      4.5532160718    -3.5247821608    -3.2083506104
 H      2.1680140842     2.0678189487    -3.1999053358
 F      2.0735312052     2.7173194235    -3.8403045229
          26
Energy: -80.66201252292564 Kcal/mole
 H     -4.2817453669    -6.0791307068    -3.9232924791
 F     -4.1879379966    -5.7462710251    -3.0740024170
 H      0.2516502921    -4.5447132432    -1.3821206809
 F     -0.5006004149    -4.0773953923    -1.1441671140
 H     -0.3343229030    -6.2280459337    -4.5250693325
 F      0.3115352823    -6.4714189595    -3.9213096330
 H     -1.3934368857    -4.2433345280    -5.6854085706
 F     -1.4378256584    -5.0839611699    -5.3217253488
 H     -0.2940211422    -2.5166000923    -2.0240609417
 F     -0.0540931233    -1.8335201384    -2.5868444902
 H      0.0010259647    -0.0636916625    -5.4816500128
 F      0.6786468104    -0.6382458348    -5.7088206376
 H     -2.1135221102     2.1335952586    -3.5018353646
 F     -2.8532501830     2.5322571869    -3.1347385856
 H     -3.8637030120    -4.1714382634    -2.4864563783
 F     -3.8659771852    -3.2700656547    -2.3179000127
 H     -0.2100158549    -2.0667735332    -6.1775376313
 F     -0.6522708801    -2.8346387771    -6.4135089428
 H     -4.4173212168     2.7586338869    -4.2293126597
 F     -5.1232587561     2.6055320958    -4.7942029430
 H     -2.9152112733    -1.9118149116    -3.6499486270
 F     -2.6691931105    -1.5111027489    -4.4372184831
 H      1.4143654723    -5.7172359654    -2.6928080039
 F      1.6268031711    -5.0650898912    -2.0841498716
 H     -1.8415905173     0.0593096169    -4.2548818890
 F     -1.3999821986     0.8027197097    -4.5601891550
          26
Energy: -76.87064154106574 Kcal/mole
 H      0.4495870233    -5.0386041604    -1.4378345207
 F     -0.2418998448    -5.5878210358    -1.1906590062
 H      4.1996518149    -4.9419015671    -3.3337676728
 F      3.2987906291    -5.1042855785    -3.2792740342
 H      3.0262406403    -3.9918157193    -1.6937159616
 F      3.4331728836    -4.1621140180    -0.8897920604
 H      0.8466087863    -3.9766667679    -3.8492408408
 F      0.9961564125    -3.8406402912    -2.9548017399
 H     -3.3684651602    -3.0127295566    -1.0055027904
 F     -3.6751156667    -2.2816501832    -0.5446585470
 H     -1.7038554393    -1.4655634893    -6.5149614063
 F     -0.7986328125    -1.5997025107    -6.4560740662
 H     -5.3880891013    -2.0426276184    -0.3646443864
 F     -6.2472186907    -2.2329489432    -0.6226427235
 H     -1.4056166974    -4.4123442348    -1.5311315113
 F     -2.2278040803    -4.0150034767    -1.6149004156
 H      0.1446386679    -2.7207978906    -5.5424157054
 F      0.3494947063    -3.6014161132    -5.3893322328
 H     -3.9300432844    -0.7652398778    -5.9832497102
 F     -3.3515911134    -1.2708272585    -6.4839127569
 H     -6.5782815423    -1.0022449539    -1.9197061474
 F     -6.6948548690    -0.6014651841    -2.7362079757
 H      5.1935341011    -4.7506885356    -1.0121354993
 F      5.7210374960    -5.1764494478    -1.6296764404
 H     -5.5497806575    -0.3436695935    -4.1149754289
 F     -4.7568108059    -0.1506100497    -4.5330852553
          26
Energy: -78.50375450565328 Kcal/mole
 H     -1.2416607968    -4.4221116925    -1.3018953332
 F     -1.1047508849    -5.2293883536    -0.8890405543
 H      0.3901887638    -6.1620707016    -1.5036632829
 F      1.0290619638    -6.1388552086    -2.1610756917
 H      2.4489793122    -5.6383642022    -2.6582191730
 F      2.9380415943    -5.1228952011    -3.2378732017
 H     -0.7618515589    -2.9589963420    -2.8353128999
 F     -1.5955280010    -3.3207906994    -2.7129305774
 H     -6.5312660363    -3.6742227948    -4.0757864973
 F     -7.3592114879    -3.6770351114    -3.6815943866
 H     -0.4942996520     0.4834256613    -5.3722959211
 F      0.2185459375    -0.0204798754    -5.0915480347
 H     -7.2114763220    -2.1870699268    -3.0361958284
 F     -6.7069394794    -1.4635833891    -2.7853994881
 H     -3.7473565282    -3.3989350872    -3.4267251107
 F     -4.4634292637    -3.6700653990    -3.9313211785
 H      0.3214690982    -1.2591976899    -3.5476279551
 F      0.1693115952    -1.5363746452    -2.6868666469
 H     -2.4417785548     1.2661823255    -4.6955815291
 F     -2.0658087051     1.2544995597    -5.5318824230
 H     -5.2000907408    -1.8552594839    -1.8595237596
 F     -4.2970432351    -1.7434945925    -1.7459332166
 H      1.7578171897    -4.0834025501    -3.7981980265
 F      0.9074572284    -3.7706371447    -3.9394592648
 H     -3.3151429567    -0.4738877121    -2.7141714981
 F     -2.7441817374    -0.2652560218    -3.4007318405
          26
Energy: -85.92110488040134 Kcal/mole
 H      6.5814458680    -5.9807760625    -1.9706026084
 F      6.0013037320    -6.0008940213    -1.2607298242
 H      4.3295460063    -5.2703987707    -1.8360932759
 F      3.5260810373    -5.1021034237    -2.2447615029
 H      3.6344119154    -5.7386869872    -3.7297394828
 F      3.9746107461    -6.1350222523    -4.4834450707
 H     -3.1766640018    -5.2463284014    -0.4773101000
 F     -4.0692188675    -5.1918488433    -0.6804523886
 H     -6.4167206757    -1.9266607541    -1.2324581552
 F     -6.8140671419    -1.1150617426    -1.3883806690
 H     -1.2087492060    -2.1590220818    -0.9372819716
 F     -1.3608632218    -3.0547279718    -1.0616253867
 H     -5.7839851846     0.1711047829    -1.1706392388
 F     -5.0309517337     0.5905788994    -1.4834827898
 H     -5.2133059902    -4.0622752485    -0.9186571918
 F     -5.7987324083    -3.3597670434    -0.9868270582
 H     -1.1845755255    -4.8159593895    -0.6785340840
 F     -1.5722980216    -5.4461955946    -0.1369045134
 H     -1.3101709040    -0.0762660630    -2.0395835870
 F     -1.3163541492    -0.5037029833    -1.2283200992
 H     -4.3570249681     0.0805954977    -2.8360249641
 F     -3.7964811633    -0.2514572253    -3.4813315827
 H      6.0403569078    -5.6531154993    -4.3705491852
 F      6.6998063463    -5.3741817619    -3.7976518050
 H     -2.1896074053     0.1194949868    -3.7439702663
 F     -1.2979413194     0.3334387397    -3.7509460745
          26
Energy: -84.73970563160213 Kcal/mole
 H      6.1257749963    -6.7469108167    -5.2156194901
 F      6.1617441537    -6.6226032540    -4.3077963523
 H      6.8321938940    -4.9612011404    -4.0912920289
 F      7.0840555618    -4.1297835245    -4.3848894545
 H      6.9256961574    -4.2422219684    -6.3296949258
 F      6.5035180182    -4.6696521996    -7.0224849490
 H     -4.6463817443    -3.3283445948     3.4482966486
 F     -5.2839050141    -3.4210873212     2.7957233828
 H     -6.3456960881    -1.2307238467    -0.6945565428
 F     -6.5507672890    -1.4215088694    -1.5677322855
 H     -0.8331920690    -1.5849470391     1.6730638034
 F     -1.5076054271    -1.4146698154     2.2706098598
 H     -5.0675711145    -1.3309594910    -2.4257316737
 F     -4.3188015283    -0.9362147506    -2.7784492615
 H     -5.3292248558    -2.1826836652     1.5515825860
 F     -5.5736056890    -1.5161447952     0.9711577905
 H     -2.3370846209    -2.1280026977     3.5691282879
 F     -2.9550153237    -2.5748252707     4.0784417816
 H     -0.2711827490    -0.9110793127    -0.2726081327
 F      0.1674060069    -1.4782664331     0.2990803083
 H     -3.6380564419     0.7907203012    -2.8986692083
 F     -3.4354186902     1.5370115379    -2.4058443593
 H      5.8738706665    -6.1287221108    -6.8444200948
 F      5.5932442890    -6.9764362159    -6.6358088960
 H     -1.8289471812     0.7612646328    -1.6279501094
 F     -1.1009560943     0.3351805146    -1.2682692763
          26
Energy: -86.8978687889216 Kcal/mole
 H      5.3740025906    -5.7818912220    -4.6896739933
 F      5.6464258646    -5.3968861790    -3.9032608216
 H      5.4704116957    -3.6224231423    -4.1684727200
 F      5.6143528610    -2.8355018028    -4.6167190209
 H      5.5418079016    -3.0249130718    -6.3324878585
 F      5.3870459943    -3.6396204902    -6.9951133499
 H     -4.5977775272    -2.7570665943     1.9291025880
 F     -5.3180646401    -2.1907236185     1.9655869528
 H     -5.7863828401    -0.7012398241    -1.0317967078
 F     -6.1072384803    -1.2894131884    -1.6578899530
 H     -1.4172672922    -3.6958544823    -1.0405068279
 F     -1.3962213816    -3.9939323670    -0.1735606679
 H     -5.8939182031    -0.8028024178    -3.3781300140
 F     -5.9234935846    -0.4185770197    -4.2102268475
 H     -4.9942442790    -0.5385356958     1.0155878911
 F     -4.9928508369     0.0035680819     0.2759862736
 H     -2.3743084389    -4.0325105570     1.1856189114
 F     -2.9698529575    -3.7193754850     1.8086455184
 H     -1.3763228622    -2.9301417023    -3.1841444454
 F     -0.9947036188    -2.8285913041    -2.3565314502
 H     -5.1575344624    -1.7323636121    -5.2264959002
 F     -4.5754178685    -2.3641956038    -5.5471477446
 H      4.7371622585    -5.5157218724    -6.5664560045
 F      4.9944244861    -6.2898647645    -6.1476387066
 H     -3.1144015514    -2.8633678952    -4.9633105255
 F     -2.3346423899    -3.2437749896    -4.6664012926
          26
Energy: -89.85690970820097 Kcal/mole
 H      5.1789962651    -6.4722081692    -3.9877028724
 F      5.6699721161    -6.5974862788    -4.7519915017
 H      4.8898984007    -5.9190499510    -6.2406192434
 F      4.2800847376    -5.5103449250    -6.7901431265
 H      3.1795780377    -4.3966826547    -5.6229722193
 F      2.9946963430    -4.1532944230    -4.7584087875
 H     -3.0857147278     0.1209392515     0.6821561334
 F     -3.4272597089     0.6231302055    -0.0048957363
 H     -3.5938039010     1.5571398566    -3.5349681769
 F     -4.3288770188     1.6592095000    -4.0736130501
 H     -2.1077890782    -3.2860922136    -0.4565071530
 F     -2.3955836183    -3.2818810697     0.4141509710
 H     -5.7064169313     0.2071056085    -4.6225119156
 F     -6.0647805677    -0.5197710316    -5.0515979841
 H     -2.7702533451     1.2055357943    -1.3886489243
 F     -2.4083397040     1.4635379609    -2.1907352029
 H     -2.2826319353    -1.8692034258     1.1262057237
 F     -2.2398922762    -0.9996834742     1.4142983743
 H     -1.5199680296    -2.2956201191    -2.8106967849
 F     -1.5726254346    -2.6186245462    -1.9540846569
 H     -4.9413968889    -1.5664056988    -5.1182432810
 F     -4.1933945686    -2.0956404560    -5.0822974806
 H      3.7214098145    -5.0776074182    -3.3706511980
 F      4.1638394763    -5.6950812013    -2.8569673248
 H     -2.6383593854    -1.7051204656    -4.4202767983
 F     -1.8092712566    -1.5034137102    -4.0843954807
          26
Energy: -87.93966710232644 Kcal/mole
 H      4.8144034317    -3.8354428277    -1.8834100532
 F      4.6829720484    -4.5586043098    -2.4317277187
 H      2.9571667081    -4.6485559824    -2.5560729644
 F      2.1131089783    -5.0030617397    -2.5033357222
 H      1.6984449388    -5.9275983354    -1.0448196523
 F      1.5017179751    -5.9343120219    -0.1491956083
 H     -2.0833924757    -1.6811814325    -2.4741144901
 F     -2.0938342783    -1.0624784002    -3.1508615083
 H     -1.6034503456    -4.8961360239     0.7021194085
 F     -1.2999290077    -4.0673212889     0.4534631548
 H     -3.6756968892    -6.3992456305     0.5897343248
 F     -2.8354116352    -6.3229787404     0.9488903541
 H     -5.0986501069    -1.2687004294    -1.9045193066
 F     -5.2813478146    -1.9898397860    -1.3683583456
 H     -3.6698274968    -0.0015596978    -3.2627126175
 F     -4.5391625052     0.1007491610    -2.9894388706
 H     -1.8266670321    -3.3799414869    -0.9096768573
 F     -2.3452981310    -3.1801296967    -1.6390505830
 H      2.1296815823    -4.5558860054     0.8923107811
 F      2.6030446652    -3.7718828752     0.9387379668
 H     -6.1135878742    -3.3733462911    -1.2812280136
 F     -6.4891767694    -4.2088664281    -1.2396578030
 H      3.5586154144    -2.6457076627    -0.1657654621
 F      3.8285359088    -2.4557959357    -1.0213152635
 H     -5.4200421761    -5.4245389348    -0.6609115823
 F     -5.2072375414    -6.0777577529    -0.0535333120
          26
Energy: -91.73327504294268 Kcal/mole
 H      0.9692903040     0.3586195019    -3.9841057127
 F      0.9049235624    -0.3709625483    -4.5358809881
 H      0.7717786247    -1.9175285772    -4.1296549901
 F      0.7752935470    -2.7473579562    -3.7394501117
 H      1.3781891305    -2.6190648798    -2.2304002163
 F      1.9295325742    -2.4168744827    -1.5261073437
 H     -4.3037637033    -1.3794694039    -4.2956647805
 F     -5.1943934981    -1.2932057843    -4.0951001859
 H     -1.9890283041    -2.3645139387    -0.7305995866
 F     -1.8193274197    -1.8278056968    -1.4545021166
 H     -3.1447958957    -3.0023375049     1.0963999666
 F     -2.4866826021    -3.1538867912     0.4760704520
 H     -6.9759543842     0.2268390605    -0.8913809713
 F     -6.8618645932     0.2462042431     0.0182879296
 H     -6.4461289526     0.1232417061    -3.3215257277
 F     -6.8880001965     0.5906544705    -2.6679477971
 H     -2.1274716937    -1.9762117518    -3.3459653634
 F     -2.4815398223    -1.8648931910    -4.1844955885
 H      2.2865565660    -0.9154161360    -0.7109442112
 F      2.4032840269    -0.0143539414    -0.5870465871
 H     -6.8104770347    -1.2229535900     0.8044947927
 F     -6.6957727743    -2.0935407120     1.0687106056
 H      1.7908442473     1.2240567880    -1.9290058128
 F      1.2743134444     1.5464221976    -2.6146919453
 H     -5.3490078222    -2.6990920351     1.7076460257
 F     -4.5042405313    -2.7663903020     2.0579718276
          26
Energy: -92.36194603165823 Kcal/mole
 H     -0.1502171810    -0.3332749226    -2.3812911979
 F      0.4912504834    -0.2847188060    -3.0347822377
 H      2.2125996852     1.1905517255    -2.8963109026
 F      2.9225124052     1.5711992157    -2.4581095581
 H      2.7823824197     2.1087226698    -0.8795149277
 F      2.4501779954     2.3136171199    -0.0497273135
 H     -3.5822901353    -0.7633916460    -2.9220242331
 F     -3.9657408553     0.0694120854    -2.9049218870
 H     -3.3521018671    -4.8501752274    -2.3091431382
 F     -3.8876713517    -4.5374782576    -2.9846243979
 H     -2.6041318557    -4.6603056079    -0.3339962415
 F     -2.2050537049    -5.0700824807    -1.0507308814
 H     -4.3886553923     1.4399334807     0.3239097362
 F     -4.4018460140     0.9899738228     1.1228160598
 H     -3.8280223145     1.4596305901    -1.9092557908
 F     -3.8766386016     2.1400205940    -1.2963978145
 H     -3.2673530493    -3.1827450017    -3.3803795765
 F     -2.9693381061    -2.3346199668    -3.5613768660
 H      0.8647223809     1.8424218910     0.3109729669
 F      0.1069576822     1.3491768599     0.4639141342
 H     -4.2302997744    -0.6261295968     1.4465379538
 F     -4.0160571614    -1.4955105079     1.6444418047
 H     -0.8895662906     0.0161552058    -0.3928518660
 F     -1.2866472164    -0.5330160193    -1.0106112883
 H     -3.5834551053    -3.0855248874     1.1377460234
 F     -3.4761907434    -3.9628968453     0.8936112159
          26
Energy: -83.73575981303011 Kcal/mole
 H     -0.2612166294    -0.6394122090     1.2749009719
 F     -1.1310479927    -0.6230534068     0.9850479244
 H     -1.8231243969    -1.3960168614    -0.4058983821
 F     -1.9047719024    -1.5062229078    -1.3125831742
 H     -0.8746259176    -0.3213582762    -1.9887721240
 F     -0.4533307082     0.4481752703    -2.2556381341
 H     -6.6522511686     1.0985822344    -4.5120327204
 F     -6.5954435853     1.2350418106    -3.6070240560
 H     -5.7628843699    -2.9289115874    -2.6391957726
 F     -5.4966721230    -2.4544116651    -3.3773487806
 H     -6.7807968585    -4.3735896531    -0.4755128512
 F     -6.2137760341    -3.9734387096    -1.0748922029
 H     -6.0855247741    -0.3040643645    -0.2745143692
 F     -5.4448097420    -0.7893796683     0.1668950820
 H     -7.2334372024     0.6883627713    -1.8471032229
 F     -7.4472777909     0.5413086784    -0.9675941004
 H     -6.4922194769    -1.8698330645    -4.9769696488
 F     -6.8495260957    -1.3105406224    -5.6097515578
 H      0.9766797120     0.5691692459    -1.3017706116
 F      1.5881482374     0.8954482638    -0.7013230744
 H     -5.9507451448    -1.7141505821     1.5860858070
 F     -6.3000101592    -2.1713489092     2.3001394740
 H      1.8066212018     0.0668478928     0.7489016254
 F      1.4494918407    -0.2817721908     1.5181945844
 H     -6.7699565124    -3.9257905484     1.8647387455
 F     -7.0767323155    -4.6461840088     1.3874433770
          26
Energy: -90.78792864559368 Kcal/mole
 H     -2.0402450042     2.2551990237     0.8022144358
 F     -2.6318458034     2.9203182163     0.5819556016
 H     -3.6494002258     1.4461867576    -2.2149974992
 F     -3.2018236719     0.9959841373    -2.8767238997
 H     -2.3531371526    -0.3232841827    -2.9450011535
 F     -1.7070067788    -0.9693456847    -2.8674829247
 H     -5.0515716019    -2.1172227420    -3.2014143619
 F     -5.0780460579    -1.3234171095    -2.7430905451
 H     -3.6169488506    -4.2426309238     0.2236323490
 F     -3.7825955935    -4.1527553613    -0.6737931576
 H     -3.1502050770    -3.2477442062     2.1386620431
 F     -3.5516923172    -4.0413694350     1.9153774892
 H     -4.5062224750    -0.0686793633     0.6859211608
 F     -3.7745599039     0.2462109567     1.1402370955
 H     -5.5077183933    -1.2194305055    -1.2497393292
 F     -5.6859850052    -1.0183931981    -0.3729873597
 H     -4.7125529150    -4.2717164438    -1.9705969584
 F     -5.1884753249    -3.9594094822    -2.6895206133
 H     -0.6129651927    -0.2924884833    -1.9810420478
 F      0.0748532053    -0.0756226136    -1.4146816979
 H     -3.9451701469     2.6375416794    -0.5709011679
 F     -4.5454495409     2.3598016847    -1.2060500831
 H     -0.3133625257     1.1226533860     0.0565932692
 F     -0.7099981012     1.2107795465     0.8786656505
 H     -2.9232564257    -0.8840691781     2.1952643206
 F     -2.8095342888    -1.6607501128     2.6693138974
          26
Energy: -89.83680103441343 Kcal/mole
 H     -1.0309723587     0.6317715789     2.2748295908
 F     -1.6949714685     1.1437838029     2.6460945429
 H     -1.1306740953     4.2547702886     1.5703204337
 F     -0.2398765653     4.4718127819     1.5864857310
 H      0.5529533958     3.0952764858     1.0661830455
 F      0.8276898863     2.3409696738     0.6229786975
 H     -4.3984843566     0.3004974226    -4.5608195056
 F     -4.3239872160     1.0359674237    -5.1034271479
 H     -1.9932021039    -1.2370065824    -1.4200210752
 F     -2.7145939639    -1.8002579282    -1.3631817781
 H     -0.4701647900    -0.1953103464    -0.8065019320
 F     -0.2795302978    -0.8688837790    -1.3988247504
 H     -3.5145344914     2.7544478136    -2.2205464658
 F     -3.8931672406     2.4594157179    -1.4392127959
 H     -3.6303197747     2.3924850113    -4.4603936631
 F     -3.1341705812     2.9384961044    -3.9157865900
 H     -3.7848376566    -0.9824469338    -2.3323599456
 F     -4.3686091849    -0.5130356635    -2.8612766329
 H      1.8581916030     1.1111366122     0.3422228502
 F      2.2279238537     0.2752007593     0.4156960609
 H     -2.5382344890     2.3953943890     1.9225190727
 F     -2.6253784642     3.2011340790     1.4934753923
 H      1.0063375006    -0.3801536367     1.2006081901
 F      0.1521369916    -0.3386246540     1.5315248473
 H     -2.7491478562     1.5018720425    -0.5407085099
 F     -2.0450015277     0.9717696467    -0.2876109042
          26
Energy: -89.82795844657926 Kcal/mole
 H      1.0105063600     2.3045449101     0.4504281841
 F      0.3753989857     1.9512122108    -0.1087530268
 H     -2.8040578780     2.8140299283    -1.6006323260
 F     -3.2701188491     3.5946254388    -1.4808541129
 H     -2.3624929257     4.9335590177    -1.1647074219
 F     -2.0107178182     5.7622327083    -0.9902276576
 H     -3.5767770391     1.2457314726    -4.2799445334
 F     -3.1912774437     1.7905934953    -4.9087564593
 H     -1.9280489756    -2.0395089202    -2.3566223204
 F     -2.7642075841    -2.3567579517    -2.1539382470
 H     -0.0575240130    -0.5255810646    -2.9589045048
 F     -0.6202494888    -1.0710786260    -2.4828147554
 H     -0.5564134534     3.6761557228    -4.0658084916
 F      0.2802446689     3.3099314610    -3.9835164720
 H     -2.6868032456     3.3976190896    -4.4112317940
 F     -2.1316364880     4.0928494984    -4.1891202231
 H     -3.7642095242    -0.8719389578    -2.7777969990
 F     -3.9930710955    -0.0094447962    -2.9890201092
 H     -0.7045177013     5.4602058395     0.0420142765
 F      0.0777278081     5.0594154580     0.3034488442
 H     -0.7429576385     1.7503815747    -1.4699491689
 F     -1.4659716197     1.9800804280    -1.9850979046
 H      1.0576617818     4.2320755010     1.7507901233
 F      1.5452337351     3.4959727089     1.9984093265
 H      0.7857435893     1.5586737569    -4.1215241914
 F      0.9367529029     0.6771517998    -3.9190291882
          26
Energy: -88.80471846156468 Kcal/mole
 H      1.7024757402     4.6399886090     1.2282594155
 F      1.3413719851     3.8006963631     1.1502747758
 H     -2.7603678176     3.0118345715     0.7654855192
 F     -3.6227366690     3.2400779021     0.5530850809
 H     -3.5722146895     4.6257798321     1.5482963726
 F     -3.3322462267     5.1989279847     2.2226889379
 H     -2.0820820983     2.4747273214    -2.8766281147
 F     -1.5278874883     3.1575664472    -2.6168434684
 H     -1.0470863154     0.8163581273    -6.0900842047
 F     -1.8217921745     1.3026578446    -6.0250271766
 H      1.4225149154     0.5995933444    -6.2841170718
 F      0.5715935456     0.3535620824    -6.5213731371
 H      2.1283526934     4.5725468132    -4.9079780906
 F      2.9725066974     4.2828603858    -5.1186313393
 H     -0.1582712480     3.8460543201    -3.6576588087
 F      0.4619188605     4.1664221174    -4.2523164445
 H     -2.7055317361     1.5457079137    -4.6228520040
 F     -3.0827220738     1.6099806817    -3.7894940615
 H     -1.7577456252     6.1434950357     1.6505091526
 F     -0.9073712839     6.4226334610     1.4509240350
 H     -0.1451141727     2.9636549881     1.1353061542
 F     -0.9251636433     2.5468974970     0.8929737027
 H      0.9704437537     6.6816839767     1.9029853602
 F      1.8474418948     6.4520650688     1.7650055873
 H      2.9551512637     2.5231789887    -5.7337180493
 F      2.8574566889     1.6542177797    -6.0098542245
          26
Energy: -94.4184342237617 Kcal/mole
 H      2.5367025865     2.7251695549     0.9875835734
 F      2.4175925708     2.7680735126     0.0793649573
 H     -1.2324774250     3.9408367261    -0.3094519457
 F     -0.6789120357     4.4475665271     0.2175008687
 H     -9.254416E-40     4.8865365142     1.7911839644
 F      0.1646003887     5.2199653187     2.6292265837
 H     -0.5754749066     0.5885029090    -3.1434166241
 F     -1.1653608602     1.0169299843    -2.5872028137
 H      3.1342718822     1.0929358141    -4.5408226052
 F      2.7050942304     0.6712238255    -3.8488294392
 H      3.8124124895     2.7119699107    -6.0800029843
 F      3.4405069419     1.8805953431    -6.1867343853
 H      5.4405080100     4.0118260716    -2.7051248925
 F      5.8696983276     4.3194649558    -3.4548201561
 H      3.5408369428     2.9490759117    -0.9355313654
 F      4.1650882267     3.1926443507    -1.5615295683
 H      1.1768902449     0.0419573304    -4.1482713196
 F      0.3444777490    -0.3357603237    -4.2211260410
 H      1.8211341343     5.4870817604     3.0423615988
 F      2.7312034811     5.3833769186     3.0860432863
 H     -1.9686472467     2.1767046328    -1.6040648648
 F     -2.2426109199     2.9124467715    -1.1302332373
 H      3.1708431611     3.7507154724     2.8193251065
 F      3.1839282877     2.9062262368     2.4621756834
 H      5.0525803741     4.3025614476    -4.9513924947
 F      4.5577448900     4.0812721051    -5.6910261004
          26
Energy: -93.14968750043498 Kcal/mole
 H      3.0969029237     4.8485601450    -1.7918624055
 F      3.6926459876     4.4041357619    -1.2547719387
 H     -3.4860928151     4.8567689417     0.1649447468
 F     -3.5403849878     5.5923339807     0.7098166891
 H     -1.9844055785     6.0549876292     1.2710301463
 F     -1.1788417880     6.4902372390     1.3211675238
 H     -2.1396125675     0.8051862334    -1.5186003518
 F     -2.2008040738     0.9151171515    -0.6102723314
 H      1.1107621105     0.5834069462    -4.1920137813
 F      0.2670597608     0.8218622208    -4.4607039877
 H      3.7402569351    -0.6292709091    -3.6171696974
 F      3.0468117157    -0.0301056229    -3.6491648149
 H      5.7340384393     1.3820807858    -2.4279533832
 F      6.2941639922     0.8532817301    -2.9254671255
 H      4.2275396143     2.8848142076    -1.4322975525
 F      4.5577070544     2.0323805956    -1.3599414982
 H     -1.0955570499     0.8724026651    -3.6313012636
 F     -1.8895850519     0.8173033241    -3.1759194516
 H     -0.2415089975     5.8898872002     0.1519463708
 F      0.0293636658     5.3530338119    -0.5403725151
 H     -2.6489743310     2.7265262663    -0.5136751784
 F     -2.9947357335     3.5365271476    -0.7690897918
 H      1.0428988903     5.7655010687    -1.9450590973
 F      1.7966913096     5.7223852461    -2.4654695262
 H      5.6940154655    -0.6220033957    -3.5290947400
 F      5.2241014975    -1.3755714962    -3.7575788327
          26
Energy: -93.90132295167928 Kcal/mole
 H      3.5917428009     5.2076404566    -2.8996765127
 F      4.4556290777     5.2886521655    -3.1963692895
 H     -3.0775538587     3.2318330771    -1.2106415002
 F     -2.9740881379     3.7844361637    -0.4862012518
 H     -1.8525557616     4.0746149779     0.7591596953
 F     -1.1522685738     4.1926736522     1.3392881328