          26
Energy: -104.73809972765714 Kcal/mole
 H      3.9338424477     6.3734636778    -3.7082612248
 F      4.0125323452     6.3711139803    -4.6218756833
 H      0.2747594159     2.8751205511    -5.4157520905
 F      0.8734218078     2.4695448111    -4.8518366184
 H      3.6459646410     1.6357769499    -4.1352735520
 F      3.8450773567     2.5149247841    -3.9669220980
 H     -0.1087536464     6.4467258416    -4.7776213690
 F     -0.6865028729     6.2916684801    -5.4726408261
 H      1.2986819753     3.4094840041    -3.5441559429
 F      1.4646452929     4.0054056318    -2.8672345362
 H      2.8618906511     0.2041433300    -5.4383418351
 F      3.2013736299     0.1372982951    -4.5891233424
 H      2.7571708404     3.7683147497    -6.8211382693
 F      3.0212947536     3.0781455781    -7.3640876897
 H      2.8700889840     5.5148931821    -5.4211737186
 F      2.2292618057     4.9704426008    -5.7869647684
 H      1.1294871998     5.6268241472    -3.1396859523
 F      0.9336401690     6.4558785693    -3.4790997199
 H      4.2748233095     3.1477313657    -2.4753422915
 F      4.4993218089     3.6243667635    -1.7248037373
 H     -0.7200324283     4.7528076644    -6.1000154870
 F     -0.6960944506     3.8617200903    -6.3151408193
 H      4.0084269683     5.1924644708    -1.8592033400
 F      3.7352479271     6.0363388736    -2.0918795175
 H      2.6043265509     1.4733754253    -7.1785701669
 F      2.3994266580     0.6033402888    -6.9737680791
          26
Energy: -104.73756762832396 Kcal/mole
 H      3.9407778900     6.3711607879    -3.7076889160
 F      4.0121644360     6.3712361433    -4.6219060430
 H      0.2716336649     2.8776697137    -5.4105599864
 F      0.8735876217     2.4694095839    -4.8521120476
 H      3.6445127724     1.6353688941    -4.1313707380
 F      3.8451543750     2.5149464305    -3.9671291333
 H     -0.1031825184     6.4526035710    -4.7836409284
 F     -0.6867984084     6.2913566802    -5.4723215024
 H      1.3130896704     3.4062410629    -3.5427554771
 F      1.4686108807     4.0075699341    -2.8681402224
 H      2.8600988432     0.1998048314    -5.4379532877
 F      3.2014686812     0.1375284424    -4.5891439539
 H      2.7632929418     3.7609732717    -6.8090581253
 F      3.0209699902     3.0785350265    -7.3647285134
 H      2.8647496957     5.5196616914    -5.4189979730
 F      2.2295450426     4.9701896424    -5.7870801866
 H      1.1313214684     5.6291358954    -3.1351431846
 F      0.9335428653     6.4557559365    -3.4793407033
 H      4.2713687920     3.1595180623    -2.4816603860
 F      4.4995050630     3.6237415065    -1.7244685770
 H     -0.7371165192     4.7528979471    -6.1030270454
 F     -0.6951881790     3.8617153011    -6.3149810631
 H      4.0080280723     5.1953519813    -1.8485391064
 F      3.7352690876     6.0361856979    -2.0924452304
 H      2.6025588899     1.4720921975    -7.1856489566
 F      2.3995204284     0.6034083611    -6.9733925656
          26
Energy: -104.73885842893436 Kcal/mole
 H      3.9311156070     6.3725065344    -3.7084984724
 F      4.0126769978     6.3711647545    -4.6218630979
 H      0.2821766195     2.8960758828    -5.4080380230
 F      0.8730283423     2.4684331792    -4.8522458319
 H      3.6450287828     1.6355538603    -4.1329823850
 F      3.8451270018     2.5149366185    -3.9670436391
 H     -0.1049847967     6.4532315812    -4.7822648786
 F     -0.6867028017     6.2913233657    -5.4723944987
 H      1.3108322214     3.4100699112    -3.5456261132
 F      1.4687306331     4.0073668225    -2.8679879418
 H      2.8672336281     0.1990654867    -5.4408398797
 F      3.2010901973     0.1375676630    -4.5889908269
 H      2.7579724529     3.7601816704    -6.8105827834
 F      3.0212522299     3.0785770191    -7.3646476338
 H      2.8682391852     5.5138507298    -5.4164204712
 F      2.2293599332     4.9704979005    -5.7872169172
 H      1.1293774714     5.6274842577    -3.1380152715
 F      0.9336459898     6.4558435520    -3.4791883457
 H      4.2782505422     3.1478976207    -2.4764638730
 F      4.4991400021     3.6243579441    -1.7247442400
 H     -0.7128271507     4.7572141078    -6.1147752609
 F     -0.6703786770     3.8666721907    -6.3293031633
 H      4.0027488185     5.1859437605    -1.8521899003
 F      3.7366695213     6.0287039811    -2.0968243588
 H      2.5926439355     1.4733540679    -7.1896808373
 F      2.4000463938     0.6033414218    -6.9731786837
          26
Energy: -104.7408775618555 Kcal/mole
 H      3.9394220676     6.3654377942    -3.7078151880
 F      4.0122363592     6.3715397348    -4.6218993446
 H      0.2774922800     2.8847660934    -5.4116062508
 F      0.8732768357     2.4690331374    -4.8520565457
 H      3.6519984032     1.6344074939    -4.1351385883
 F      3.8447572796     2.5149974306    -3.9669292575
 H     -0.1153543106     6.4506310292    -4.7730659504
 F     -0.6861527229     6.2914613190    -5.4728824806
 H      1.3147932796     3.4123696301    -3.5485531957
 F      1.4685205082     4.0072448277    -2.8678326668
 H      2.8592455477     0.2062719306    -5.4371087908
 F      3.2015139465     0.1371853778    -4.5891887525
 H      2.7604939672     3.7627752250    -6.8125914451
 F      3.0211184694     3.0784394371    -7.3645410789
 H      2.8685760154     5.5153298831    -5.4191824293
 F      2.2293420652     4.9704194348    -5.7870704017
 H      1.1368152566     5.6266326784    -3.1445013706
 F      0.9332514325     6.4558887263    -3.4788442731
 H      4.2555454321     3.1440675206    -2.4603886515
 F      4.4674409772     3.6164214250    -1.7035061858
 H     -0.7174405441     4.7530911172    -6.1111297182
 F     -0.6791454487     3.8619816185    -6.3240765357
 H      4.0056166980     5.1872164937    -1.8509491450
 F      3.7365173870     6.0286364655    -2.0968901780
 H      2.5890428765     1.4731108878    -7.1937887904
 F      2.4002374216     0.6033543219    -6.9729607662
          26
Energy: -104.73408893241515 Kcal/mole
 H      3.9397207068     6.3547843062    -3.7079279503
 F      4.0122205171     6.3721048778    -4.6218933628
 H      0.2798523595     2.8801263500    -5.4175081142
 F      0.8731516389     2.4692792650    -4.8517434654
 H      3.6501321968     1.6349431128    -4.1357908942
 F      3.8448562775     2.5149690173    -3.9668946542
 H     -0.1105278867     6.4450094396    -4.7757707805
 F     -0.6864087536     6.2917595313    -5.4727389956
 H      1.3161265625     3.4128669268    -3.5492868914
 F      1.4684497806     4.0072184473    -2.8677937460
 H      2.8592777375     0.2007656089    -5.4375514772
 F      3.2015122389     0.1374774754    -4.5891652690
 H      2.7552495269     3.7590143399    -6.8104489799
 F      3.0213966748     3.0786389433    -7.3646547318
 H      2.8692171027     5.5117749226    -5.4150736483
 F      2.2293080570     4.9706080172    -5.7872883630
 H      1.1275106111     5.6287912235    -3.1338063263
 F      0.9337450225     6.4557742205    -3.4794116205
 H      4.2455461399     3.1428581768    -2.4567547829
 F      4.4679714165     3.6164855779    -1.7036989541
 H     -0.7196601726     4.7511720137    -6.1036574359
 F     -0.6790277025     3.8620834225    -6.3244729230
 H      4.0007160226     5.1861775374    -1.8492017808
 F      3.7367773565     6.0286915798    -2.0969828716
 H      2.5866789615     1.4782424592    -7.1746490733
 F      2.4003628219     0.6030821039    -6.9739760840
          26
Energy: -104.73986145908702 Kcal/mole
 H      3.9315783505     6.3692990027    -3.7084584936
 F      4.0126524503     6.3713349067    -4.6218652187
 H      0.2793249421     2.8858277114    -5.4127633515
 F      0.8731796172     2.4689768210    -4.8519951641
 H      3.6439844277     1.6368497767    -4.1384857853
 F      3.8451824024     2.5148678731    -3.9667516964
 H     -0.1131176387     6.4520872722    -4.7752303689
 F     -0.6862713732     6.2913840686    -5.4727676632
 H      1.3077153242     3.4109585377    -3.5456749423
 F      1.4688959773     4.0073196829    -2.8679853515
 H      2.8603348864     0.1957269952    -5.4383369648
 F      3.2014561596     0.1377447622    -4.5891236007
 H      2.7640478521     3.7642162543    -6.8127140465
 F      3.0209299440     3.0783629938    -7.3645345752
 H      2.8721856211     5.5097382434    -5.4172409335
 F      2.2291505839     4.9707160584    -5.7871733935
 H      1.1318324290     5.6276805131    -3.1389579128
 F      0.9335157600     6.4558331411    -3.4791383407
 H      4.2511669843     3.1464944073    -2.4606599514
 F      4.4676732437     3.6162926843    -1.7034917940
 H     -0.7120937566     4.7530992279    -6.1102746182
 F     -0.6794290834     3.8619811883    -6.3241218968
 H      3.9844318827     5.1777343964    -1.8471019997
 F      3.7083169923     6.0169956056    -2.0926426075
 H      2.5922276700     1.4749650898    -7.1834769237
 F      2.4000684757     0.6032559608    -6.9735077869
          26
Energy: -104.74016752240551 Kcal/mole
 H      3.9353198130     6.3661492130    -3.7081472656
 F      4.0124539744     6.3715019957    -4.6218817286
 H      0.2726493076     2.8884340973    -5.4036298175
 F      0.8735337442     2.4688385582    -4.8524796770
 H      3.6542626437     1.6335789786    -4.1333679293
 F      3.8446371668     2.5150413814    -3.9670231869
 H     -0.1129335153     6.4488411433    -4.7746420361
 F     -0.6862811405     6.2915562683    -5.4727988729
 H      1.3143744033     3.4142497347    -3.5500968933
 F      1.4685427286     4.0071450925    -2.8677507773
 H      2.8591216338     0.2017470069    -5.4374146707
 F      3.2015205199     0.1374254145    -4.5891725263
 H      2.7487353206     3.7630960624    -6.8187092366
 F      3.0217422384     3.0784224174    -7.3642165442
 H      2.8752741783     5.5077835171    -5.4197896810
 F      2.2289867431     4.9708197521    -5.7870381884
 H      1.1326783358     5.6263914556    -3.1426135665
 F      0.9334708866     6.4559015226    -3.4789444168
 H      4.2456588127     3.1394094276    -2.4670372637
 F      4.4598496017     3.6104068673    -1.7099555523
 H     -0.7177454228     4.7523298759    -6.1080245157
 F     -0.6791292756     3.8620220006    -6.3242412595
 H      3.9807814297     5.1832272959    -1.8482221091
 F      3.7184939189     6.0268755503    -2.0938883148
 H      2.5966682729     1.4729997075    -7.1874732902
 F      2.3998329120     0.6033602198    -6.9732957889
          26
Energy: -104.73809690863018 Kcal/mole
 H      3.9211857968     6.3657348940    -3.7094590401
 F      4.0132037513     6.3715239744    -4.6218121420
 H      0.2822062214     2.8828754031    -5.4057991285
 F      0.8762130881     2.4697884629    -4.8424129180
 H      3.6529357056     1.6335487126    -4.1316742696
 F      3.8447075578     2.5150429870    -3.9671130316
 H     -0.1118631397     6.4410659539    -4.7739529108
 F     -0.6823662041     6.2881555508    -5.4754040225
 H      1.3204854307     3.4091909821    -3.5470261850
 F      1.4682185527     4.0074134477    -2.8679136712
 H      2.8634812544     0.2005003822    -5.4392541302
 F      3.2012892521     0.1374915451    -4.5890749472
 H      2.7642752302     3.7652563352    -6.8139033372
 F      3.0209178821     3.0783078199    -7.3644714861
 H      2.8659884378     5.5154423881    -5.4148889366
 F      2.2294793302     4.9704134667    -5.7872981615
 H      1.1296421041     5.6348817428    -3.1265351946
 F      0.9214730102     6.4588481237    -3.4709681074
 H      4.2422153841     3.1453355422    -2.4697121834
 F      4.4600322676     3.6100925006    -1.7098136540
 H     -0.7249432472     4.7525041152    -6.1101648930
 F     -0.6787474476     3.8620127576    -6.3241277174
 H      3.9834703313     5.1829763323    -1.8520010137
 F      3.7183512789     6.0268888633    -2.0936878527
 H      2.5919090406     1.4728356545    -7.1923979106
 F      2.4000853783     0.6033689224    -6.9730345492
          26
Energy: -104.74013108611956 Kcal/mole
 H      3.9289532058     6.3736210494    -3.7086966414
 F      4.0127917082     6.3711056321    -4.6218525855
 H      0.2818560337     2.8767669467    -5.4098583742
 F      0.8762316647     2.4701125024    -4.8421975844
 H      3.6464217746     1.6350258091    -4.1318526642
 F      3.8450531068     2.5149646304    -3.9671035682
 H     -0.1127956397     6.4484458742    -4.7748453834
 F     -0.6823167371     6.2877640630    -5.4753566789
 H      1.3079868923     3.4104087178    -3.5452552658
 F      1.4688815713     4.0073488496    -2.8680076144
 H      2.8625694460     0.2028547402    -5.4387132185
 F      3.2013376214     0.1373666518    -4.5891036413
 H      2.7465016764     3.7573169470    -6.8126461821
 F      3.0218607281     3.0787289861    -7.3645381753
 H      2.8702137120     5.5137195672    -5.4196507412
 F      2.2292551891     4.9705048583    -5.7870455588
 H      1.1310175233     5.6307760547    -3.1373972871
 F      0.9214000474     6.4590659210    -3.4703918985
 H      4.2445717170     3.1415693289    -2.4680686233
 F      4.4599072696     3.6102922896    -1.7099008411
 H     -0.7071937817     4.7519014314    -6.1046747070
 F     -0.6796890158     3.8620447286    -6.3244189591
 H      3.9772880810     5.1822805823    -1.8477720493
 F      3.7186792330     6.0269257712    -2.0939121895
 H      2.5940425202     1.4729672879    -7.1899856005
 F      2.3999722021     0.6033619395    -6.9731625167
          26
Energy: -104.73878366159974 Kcal/mole
 H      3.9242369694     6.3760839806    -3.7091528750
 F      4.0130418936     6.3709749793    -4.6218283834
 H      0.2850564958     2.8836253606    -5.4082407438
 F      0.8760618876     2.4697486794    -4.8422833960
 H      3.6618322291     1.6305568280    -4.1393086090
 F      3.8636776907     2.5091090705    -3.9711022865
 H     -0.1145147609     6.4426446206    -4.7686746389
 F     -0.6918122386     6.2767082233    -5.4615539460
 H      1.3038615606     3.4157180621    -3.5489094435
 F      1.4691004106     4.0070672012    -2.8678137687
 H      2.8525742931     0.2009798055    -5.4347987451
 F      3.2018678411     0.1374661128    -4.5893112951
 H      2.7655304668     3.7624993692    -6.8099024138
 F      3.0208512947     3.0784540706    -7.3646837258
 H      2.8640940033     5.5176712555    -5.4149251292
 F      2.2295798255     4.9702952304    -5.7872962416
 H      1.1240054207     5.6298334857    -3.1354131429
 F      0.9217720232     6.4591159221    -3.4704971527
 H      4.2552037804     3.1417659614    -2.4711248996
 F      4.4593432632     3.6102818587    -1.7097387127
 H     -0.7243646989     4.7513687468    -6.1053751454
 F     -0.6787781383     3.8620729863    -6.3243818025
 H      3.9813429318     5.1819386860    -1.8533064876
 F      3.7184641325     6.0269439080    -2.0936186003
 H      2.6013536131     1.4720126567    -7.1871184443
 F      2.3995843655     0.6034125805    -6.9733146127
          26
Energy: -104.73711040737024 Kcal/mole
 H      3.9304995601     6.3647774510    -3.7085767892
 F      4.0127096777     6.3715747645    -4.6218589434
 H      0.2779104626     2.8794461730    -5.4037521237
 F      0.8764409681     2.4699703756    -4.8425215069
 H      3.6644532625     1.6312748768    -4.1460393058
 F      3.8635386509     2.5090709797    -3.9707452386
 H     -0.1141642505     6.4473834608    -4.7701203220
 F     -0.6918308324     6.2764568387    -5.4614772559
 H      1.3179194357     3.4113948555    -3.5483990174
 F      1.4683546728     4.0072965373    -2.8678408456
 H      2.8559066508     0.2046223782    -5.4358858844
 F      3.2016910673     0.1372728827    -4.5892536249
 H      2.7627545969     3.7697728396    -6.8203084006
 F      3.0209985482     3.0780682298    -7.3641317123
 H      2.8688049654     5.5095361711    -5.4111393858
 F      2.2293299199     4.9707267778    -5.7874970665
 H      1.1251474124     5.6300873993    -3.1354761285
 F      0.9217114432     6.4591024526    -3.4704938115
 H      4.2552601198     3.1430189754    -2.4719095285
 F      4.4593402745     3.6102153892    -1.7096970900
 H     -0.7180836190     4.7513092868    -6.1039261911
 F     -0.6791113351     3.8620761405    -6.3244586661
 H      3.9879773511     5.1860400934    -1.8463806025
 F      3.7181121919     6.0267263379    -2.0939860025
 H      2.5911140646     1.4760753090    -7.1798476485
 F      2.4001275499     0.6031970662    -6.9737003116
          26
Energy: -104.74082769304499 Kcal/mole
 H      3.9307368627     6.3595649893    -3.7086099201
 F      4.0126970893     6.3718512736    -4.6218571859
 H      0.2815089109     2.8843049731    -5.4040103722
 F      0.8762500788     2.4697126275    -4.8425078074
 H      3.6622599241     1.6297997812    -4.1358274334
 F      3.8636550025     2.5091492301    -3.9712869549
 H     -0.1137739443     6.4395301953    -4.7685538080
 F     -0.6918515372     6.2768734363    -5.4615603558
 H      1.3027968453     3.4125393581    -3.5458754795
 F      1.4691568913     4.0072358241    -2.8679747135
 H      2.8635407296     0.2003960433    -5.4392854852
 F      3.2012860970     0.1374970800    -4.5890732839
 H      2.7610469682     3.7645680342    -6.8145601974
 F      3.0210891339     3.0783443327    -7.3644366412
 H      2.8695495650     5.5136994031    -5.4184649019
 F      2.2292904206     4.9705059280    -5.7871084648
 H      1.1332908086     5.6322752102    -3.1351192375
 F      0.9212794548     6.4589863943    -3.4705127437
 H      4.2471309480     3.1357062492    -2.4651363674
 F      4.4597715083     3.6106033124    -1.7100563905
 H     -0.7198065177     4.7467412319    -6.0958367654
 F     -0.6799634685     3.8559590380    -6.3098662367
 H      3.9817329570     5.1789911804    -1.8579280090
 F      3.7149038247     6.0237753202    -2.0946366302
 H      2.5922313273     1.4736505388    -7.1888542319
 F      2.4000682817     0.6033256947    -6.9732225332
          26
Energy: -104.73537134235247 Kcal/mole
 H      3.9313944820     6.3692078833    -3.7084750413
 F      4.0126622041     6.3713397403    -4.6218643409
 H      0.2722918068     2.8739906574    -5.3843747985
 F      0.8655945921     2.4538506862    -4.8254801666
 H      3.6558895693     1.6329739843    -4.1445864252
 F      3.8639929351     2.5089808459    -3.9708223106
 H     -0.1148414559     6.4434962969    -4.7686070433
 F     -0.6917949082     6.2766630438    -5.4615575318
 H      1.3059613857     3.4016491552    -3.5369365601
 F      1.4689890197     4.0078135242    -2.8684489025
 H      2.8476739564     0.1982472247    -5.4329578436
 F      3.2021277927     0.1376110699    -4.5894089507
 H      2.7557632446     3.7647933990    -6.8173745350
 F      3.0213694233     3.0783323776    -7.3642873471
 H      2.8678423022     5.5118583859    -5.4128411822
 F      2.2293809870     4.9706035897    -5.7874067902
 H      1.1190652528     5.6307110070    -3.1303398696
 F      0.9220340877     6.4590693716    -3.4707662782
 H      4.2455549177     3.1418694782    -2.4685325512
 F      4.4598551131     3.6102763673    -1.7098762308
 H     -0.7140482333     4.7468168535    -6.0951622590
 F     -0.6802689322     3.8559550265    -6.3099020177
 H      3.9799266358     5.1814971562    -1.8472243826
 F      3.7149996459     6.0236423840    -2.0952044329
 H      2.5740603413     1.4769286789    -7.1899409563
 F      2.3841614315     0.6055912056    -6.9764031104
          26
Energy: -104.74023562382776 Kcal/mole
 H      3.9355695036     6.3730498044    -3.7081132388
 F      4.0124407289     6.3711359353    -4.6218835337
 H      0.2702118681     2.8689693908    -5.3859114119
 F      0.8657049281     2.4541170528    -4.8253986528
 H      3.6605392605     1.6310506052    -4.1403268505
 F      3.8637462797     2.5090828768    -3.9710482712
 H     -0.1153982174     6.4375209155    -4.7667348901
 F     -0.6917653733     6.2769800240    -5.4616568452
 H      1.3134015980     3.4081144338    -3.5412989674
 F      1.4796093256     4.0064854848    -2.8666019416
 H      2.8538900491     0.1989897429    -5.4354879741
 F      3.2017980433     0.1375716810    -4.5892747331
 H      2.7600752388     3.7647449462    -6.8152418962
 F      3.0211406819     3.0783349479    -7.3644004786
 H      2.8697152802     5.5118358031    -5.4160202507
 F      2.2292816298     4.9706047877    -5.7872381479
 H      1.1326403835     5.6351323990    -3.1277638169
 F      0.9213139584     6.4588348270    -3.4709029318
 H      4.2545831762     3.1335168856    -2.4658156544
 F      4.4593761848     3.6107194531    -1.7100203559
 H     -0.7192116434     4.7473587717    -6.0983130960
 F     -0.6799950252     3.8559262790    -6.3097348731
 H      3.9814026051     5.1840223850    -1.8597260984
 F      3.7254812784     6.0312659072    -2.0996671090
 H      2.5845301619     1.4729734391    -7.1963590217
 F      2.3836060317     0.6058010219    -6.9760626468
          26
Energy: -104.73160290504777 Kcal/mole
 H      3.9355324709     6.3747431608    -3.7081215539
 F      4.0124426934     6.3710461067    -4.6218830926
 H      0.2817983267     2.8759711096    -5.3928217581
 F      0.8650902932     2.4537456278    -4.8250320749
 H      3.6604677218     1.6298234101    -4.1337358049
 F      3.8637500747     2.5091479766    -3.9713979109
 H     -0.1185378209     6.4423509869    -4.7652735139
 F     -0.6915988246     6.2767237998    -5.4617343678
 H      1.3177616666     3.4056506705    -3.5401674268
 F      1.4793780340     4.0066161817    -2.8666619672
 H      2.8577527277     0.2005457529    -5.4369510001
 F      3.2015931372     0.1374891383    -4.5891971230
 H      2.7642444565     3.7671748267    -6.8163205084
 F      3.0209195146     3.0782060484    -7.3643432607
 H      2.8734179076     5.5067801979    -5.4150940140
 F      2.2290852140     4.9708729758    -5.7872872827
 H      1.1380014255     5.6308811310    -3.1416378039
 F      0.9210295675     6.4590603469    -3.4701669489
 H      4.2544734146     3.1511689857    -2.4775056446
 F      4.4639320679     3.6176532456    -1.7163167668
 H     -0.7162525627     4.7453318640    -6.0894458746
 F     -0.6801519976     3.8560338017    -6.3102052587
 H      3.9881947297     5.1891514236    -1.8506922979
 F      3.7202490985     6.0325916606    -2.0909061719
 H      2.5778071096     1.4759491746    -7.1905678616
 F      2.3839626741     0.6056431660    -6.9763698545
          26
Energy: -104.73371240283863 Kcal/mole
 H      3.9289073677     6.3658660159    -3.7087141659
 F      4.0127941398     6.3715170187    -4.6218516559
 H      0.2637259474     2.8657615737    -5.3813259884
 F      0.8660489912     2.4542872201    -4.8256418989
 H      3.6529730284     1.6337871379    -4.1451641254
 F      3.8641476508     2.5089377100    -3.9707916649
 H     -0.1224931126     6.4420683785    -4.7619719463
 F     -0.6913890055     6.2767387916    -5.4619095084
 H      1.3122753152     3.4028229716    -3.5362862056
 F      1.4796690723     4.0067661846    -2.8668678570
 H      2.8349994433     0.2150496910    -5.4394745788
 F      3.1816013146     0.1502640523    -4.5929765198
 H      2.7546095890     3.7611292099    -6.8133653552
 F      3.0214306220     3.0785267544    -7.3645000248
 H      2.8740710101     5.5093019001    -5.4198977997
 F      2.2290505684     4.9707392054    -5.7870324529
 H      1.1151317741     5.6300042699    -3.1195209112
 F      0.8986751531     6.4550797760    -3.4561006797
 H      4.2526407582     3.1436453845    -2.4723306082
 F      4.4640292861     3.6180523553    -1.7165912905
 H     -0.7160823698     4.7451010633    -6.0970673546
 F     -0.6844168494     3.8529747606    -6.3068218656
 H      3.9844866644     5.1898069986    -1.8443729051
 F      3.7204458028     6.0325568838    -2.0912414011
 H      2.5822238260     1.4734752756    -7.1964737742
 F      2.3837283775     0.6057744006    -6.9760565595
          26
Energy: -104.73413944600216 Kcal/mole
 H      3.9270115931     6.3703238757    -3.7088742822
 F      4.0128947062     6.3712805395    -4.6218431621
 H      0.2731389214     2.8715577125    -5.3870897956
 F      0.8655496547     2.4539797483    -4.8253361423
 H      3.6460626657     1.6335910218    -4.1353775048
 F      3.8645142296     2.5089481135    -3.9713108225
 H     -0.1243170076     6.4346586729    -4.7587907173
 F     -0.6912922521     6.2771318593    -5.4620782652
 H      1.3108938651     3.4084692751    -3.5409908212
 F      1.4797423551     4.0064666613    -2.8666182880
 H      2.8388584782     0.2175286128    -5.4408506913
 F      3.1813966017     0.1501325512    -4.5929035202
 H      2.7574878635     3.7585404312    -6.8087998189
 F      3.0212779362     3.0786640831    -7.3647422159
 H      2.8704824907     5.5111984847    -5.4164162909
 F      2.2292409311     4.9706385959    -5.7872171389
 H      1.1101490143     5.6285557988    -3.1199095364
 F      0.8989394770     6.4551566140    -3.4560800640
 H      4.2602101376     3.1423614839    -2.4735997035
 F      4.4636277480     3.6181204632    -1.7165239679
 H     -0.7233910976     4.7435687155    -6.0918613590
 F     -0.6840291383     3.8530560481    -6.3070980317
 H      3.9877875776     5.1882172674    -1.8535381842
 F      3.7202706970     6.0326412154    -2.0907552042
 H      2.5837033416     1.4730247162    -7.1969089240
 F      2.3836498926     0.6057983018    -6.9760334758
          26
Energy: -104.73423184620678 Kcal/mole
 H      3.9229485449     6.3686561541    -3.6975496840
 F      4.0119508976     6.3742356654    -4.6102032054
 H      0.2701376499     2.8680073377    -5.3865433566
 F      0.8657088652     2.4541680875    -4.8253651296
 H      3.6496721655     1.6345341244    -4.1448807908
 F      3.8643227540     2.5088980841    -3.9708066952
 H     -0.1173544250     6.4432041219    -4.7664527808
 F     -0.6916616010     6.2766785430    -5.4616718105
 H      1.2975767211     3.4175437796    -3.5314021403
 F      1.4650338700     4.0144344788    -2.8557035414
 H      2.8434023389     0.2094850579    -5.4432689244
 F      3.1811555604     0.1505592432    -4.5927752386
 H      2.7668017201     3.7661368454    -6.8138311062
 F      3.0207838577     3.0782611109    -7.3644753178
 H      2.8716126101     5.5151622308    -5.4242605690
 F      2.2291809808     4.9704283284    -5.7868010181
 H      1.1265674430     5.6367698528    -3.1308268536
 F      0.9259778288     6.4638206498    -3.4723525274
 H      4.2526721431     3.1424164890    -2.4715665018
 F      4.4640276212     3.6181175454    -1.7166318246
 H     -0.7256236612     4.7416137980    -6.0843413175
 F     -0.6839107060     3.8531597519    -6.3074969525
 H      3.9854267530     5.1877541087    -1.8525395814
 F      3.7203959333     6.0326657849    -2.0908081778
 H      2.5782636880     1.4743718122    -7.1964713389
 F      2.3839384537     0.6057268414    -6.9760566886
          26
Energy: -104.73238464274323 Kcal/mole
 H      3.9349447884     6.3660191690    -3.6964836177
 F      4.0113145246     6.3743755514    -4.6102597578
 H      0.2694258133     2.8673827596    -5.3862475634
 F      0.8657466265     2.4542012199    -4.8253808207
 H      3.6457072734     1.6341703477    -4.1379721398
 F      3.8645330823     2.5089173816    -3.9711731832
 H     -0.1072008135     6.4365106493    -4.7733856125
 F     -0.6922002266     6.2770336163    -5.4613040398
 H      1.3042509287     3.4128647114    -3.5288660738
 F      1.4646798187     4.0146826926    -2.8558380738
 H      2.8419817947     0.2089852949    -5.4427378365
 F      3.1812309170     0.1505857545    -4.5928034115
 H      2.7482286835     3.7590894783    -6.8139714793
 F      3.0217691143     3.0786349574    -7.3644678713
 H      2.8652654499     5.5194078767    -5.4195099710
 F      2.2295176830     4.9702031067    -5.7870530263
 H      1.1259944891     5.6379092110    -3.1277483458
 F      0.9260082226     6.4637602094    -3.4725158352
 H      4.2650772065     3.1435318932    -2.4756226606
 F      4.4633695613     3.6180583757    -1.7164166547
 H     -0.7255536924     4.7429924197    -6.0898942221
 F     -0.6839144176     3.8530866192    -6.3072023837
 H      3.9922541899     5.1887376274    -1.8567913615
 F      3.7200337535     6.0326136115    -2.0905826306
 H      2.5864354660     1.4765032279    -7.1800526718
 F      2.3835049597     0.6056137748    -6.9769276610
          26
Energy: -104.73325819783867 Kcal/mole
 H      3.9231066171     6.3715071277    -3.6975215433
 F      4.0119425122     6.3740844278    -4.6102046982
 H      0.2677341378     2.8648967665    -5.3862718545
 F      0.8658363659     2.4543330961    -4.8253795321
 H      3.6606108485     1.6320167483    -4.1453429022
 F      3.8637424821     2.5090316251    -3.9707821812
 H     -0.1173870041     6.4408075856    -4.7658564462
 F     -0.6916598727     6.2768056737    -5.4617034446
 H      1.3081153435     3.4129005513    -3.5298069013
 F      1.4644748204     4.0146807913    -2.8557881651
 H      2.8312608061     0.2181754094    -5.4376877998
 F      3.1817996407     0.1500982402    -4.5930713043
 H      2.7628207963     3.7611512964    -6.8094961313
 F      3.0209950365     3.0785255827    -7.3647052782
 H      2.8692020970     5.5184905778    -5.4250154248
 F      2.2293088530     4.9702517673    -5.7867609747
 H      1.1334644649     5.6369675288    -3.1344931281
 F      0.9256119577     6.4638101635    -3.4721580400
 H      4.2577636567     3.1394096910    -2.4710727430
 F      4.4637575282     3.6182770490    -1.7166580173
 H     -0.7171652586     4.7455210702    -6.0990302609
 F     -0.6843594047     3.8529524802    -6.3067177380
 H      3.9879464317     5.1882542020    -1.8535859164
 F      3.7202622701     6.0326392561    -2.0907526721
 H      2.5854153936     1.4723586964    -7.1979625796
 F      2.3835590722     0.6058336326    -6.9759775818
          26
Energy: -104.73529153337843 Kcal/mole
 H      3.9220339570     6.3784366599    -3.6976347553
 F      4.0119994143     6.3737168322    -4.6101986926
 H      0.2725721429     2.8665465628    -5.3901842962
 F      0.8655797209     2.4542455783    -4.8251719862
 H      3.6533553231     1.6375113270    -4.1452697225
 F      3.8729021977     2.5137972780    -3.9877543201