          26
Energy: -104.70585077433059 Kcal/mole
 H      3.9731010985     6.4236887341    -3.6945165422
 F      4.0505837598     6.4604328414    -4.6074980906
 H      0.3106476010     2.9042725154    -5.4303624600
 F      0.9090307544     2.4993029277    -4.8657154599
 H      3.6276645770     1.6744984791    -4.1904064436
 F      3.8500889916     2.5501137487    -4.0331986846
 H     -0.0389155684     6.4689941748    -4.8140769589
 F     -0.5937008321     6.3210288980    -5.5290654820
 H      1.3361942602     3.4565234105    -3.5666632983
 F      1.4839000508     4.0333405141    -2.8692724263
 H      2.8266844049     0.2396570800    -5.4580608332
 F      3.1567453184     0.1807682276    -4.6045499097
 H      2.8434771365     3.7746736088    -6.8062164091
 F      3.1071985023     3.0986850079    -7.3669119170
 H      2.9516791698     5.5430553888    -5.4227186354
 F      2.3198892720     4.9772564281    -5.7714335061
 H      1.1446262075     5.6448197176    -3.1363859240
 F      0.9595009177     6.4741961946    -3.4809904604
 H      4.3146952866     3.1435771158    -2.5439085868
 F      4.5487306403     3.5953828871    -1.7810272079
 H     -0.6703885907     4.7872574165    -6.1338323033
 F     -0.6517791526     3.8961117957    -6.3492439356
 H      4.0702778202     5.1777631865    -1.8712977824
 F      3.8058141707     6.0252634202    -2.1008437080
 H      2.6276720468     1.5147310751    -7.2027061406
 F      2.4028169752     0.6480526946    -7.0047218444
          26
Energy: -104.69769698830105 Kcal/mole
 H      3.9872509793     6.4227163338    -3.6934714528
 F      4.0498331413     6.4604844250    -4.6075535302
 H      0.2951666142     2.9027236812    -5.4395213171
 F      0.8876233327     2.4947903816    -4.8707731656
 H      3.6233770922     1.6632476474    -4.1640942340
 F      3.8418790696     2.5421800875    -4.0204848626
 H     -0.0466981943     6.4728298421    -4.8089070437
 F     -0.5932879817     6.3208254247    -5.5293397340
 H      1.3321186337     3.4341397426    -3.5652814728
 F      1.4889861691     4.0183203609    -2.8760684568
 H      2.8278426486     0.2205543363    -5.4529756857
 F      3.1732095768     0.1623663715    -4.6054942136
 H      2.8225554249     3.7823792712    -6.8233591180
 F      3.0743417731     3.1001923983    -7.3820304929
 H      2.9503170662     5.5426902721    -5.4119444697
 F      2.3227040373     4.9796207632    -5.7724213956
 H      1.1567477633     5.6328285582    -3.1640658831
 F      0.9581840464     6.4698822155    -3.4815601746
 H      4.3272090205     3.1464409631    -2.5299321520
 F      4.5752180876     3.6035696060    -1.7746746420
 H     -0.6645545432     4.7904505891    -6.1470750392
 F     -0.6520886353     3.8959424053    -6.3485414391
 H      4.0889122490     5.1845804824    -1.8685176863
 F      3.8048256573     6.0249017784    -2.1009911857
 H      2.6299014541     1.5149542451    -7.1991502479
 F      2.4026987103     0.6480408560    -7.0049104763
          26
Energy: -104.68643360427367 Kcal/mole
 H      3.9816014451     6.3947587720    -3.7047962979
 F      4.0579295866     6.4467717408    -4.6171326755
 H      0.2987743740     2.9126851717    -5.4360193449
 F      0.8874319494     2.4942619475    -4.8709589371
 H      3.6432959172     1.6482038560    -4.1808823712
 F      3.8655341414     2.5228190181    -4.0179483664
 H     -0.0271040971     6.4580724128    -4.8093898455
 F     -0.5723515993     6.3194343718    -5.5335263347
 H      1.3248193509     3.4410506154    -3.5693877500
 F      1.4893733792     4.0179537551    -2.8758506283
 H      2.8328460144     0.2255997666    -5.4546351669
 F      3.1729441598     0.1620987231    -4.6054061819
 H      2.8280877321     3.7886435759    -6.8286068242
 F      3.0740482970     3.0998600914    -7.3817521143
 H      2.9436496320     5.5437238027    -5.4021568516
 F      2.3230577293     4.9795659368    -5.7729406061
 H      1.1627060387     5.6399184208    -3.1495900131
 F      0.9578679737     6.4695061147    -3.4823280860
 H      4.3070543731     3.1493529920    -2.5217058273
 F      4.5429842052     3.6069594992    -1.7628762029
 H     -0.6506020944     4.7915748708    -6.1517732707
 F     -0.6528287805     3.8958827648    -6.3482922088
 H      4.0750291790     5.1792690177    -1.8712692490
 F      3.8055621221     6.0251835394    -2.1008452216
 H      2.6038886095     1.5119689968    -7.2281548522
 F      2.4050076415     0.6443777135    -7.0076537734
          26
Energy: -104.69499335110967 Kcal/mole
 H      3.9842597141     6.4119632844    -3.7037685704
 F      4.0577885716     6.4458590812    -4.6171871941
 H      0.3130588765     2.9163395787    -5.4386083300
 F      0.9189107289     2.4983886030    -4.8916627066
 H      3.6440596223     1.6378935799    -4.1677519993
 F      3.8708555261     2.5114525704    -4.0054334599
 H     -0.0409385459     6.4887998609    -4.8175025979
 F     -0.5923399400     6.3399311023    -5.5349171192
 H      1.3413769024     3.4240884271    -3.5556181072
 F      1.4974782860     4.0176529443    -2.8742940125
 H      2.8152018284     0.2276186884    -5.4380051704
 F      3.1559949370     0.1553793759    -4.5897537107
 H      2.8488259586     3.7769379510    -6.7835809923
 F      3.0854460009     3.0939896675    -7.3479227306
 H      2.9416378141     5.5552219269    -5.4167815323
 F      2.3231644516     4.9789559878    -5.7721648006
 H      1.1741774860     5.6434187728    -3.1481557374
 F      0.9572594399     6.4693204291    -3.4824041711
 H      4.3167321696     3.1440516916    -2.5214333299
 F      4.5424708205     3.6072407210    -1.7628906583
 H     -0.6629818578     4.7909693410    -6.1493010974
 F     -0.6521720626     3.8959148867    -6.3484233519
 H      4.0636937214     5.1742809191    -1.8767647226
 F      3.8061634419     6.0254481465    -2.1005536995
 H      2.5959723036     1.5157053683    -7.1920856241
 F      2.3969695425     0.6442138360    -6.9876610407
          26
Energy: -104.6961659185417 Kcal/mole
 H      3.9808175364     6.3688809975    -3.6929083680
 F      4.0716431301     6.4041808147    -4.6047162614
 H      0.3131112081     2.9144504872    -5.4401042631
 F      0.9189079528     2.4984888149    -4.8915833508
 H      3.6454415395     1.6506731743    -4.1617712252
 F      3.8645938078     2.5273986013    -4.0061633561
 H     -0.0279869375     6.4684056056    -4.8390147223
 F     -0.5937596716     6.3236984974    -5.5460154763
 H      1.3468298228     3.4279808954    -3.5602075762
 F      1.4971890212     4.0174464578    -2.8740505518
 H      2.8366015491     0.2087123073    -5.4438065385
 F      3.1746305914     0.1416840456    -4.5940226962
 H      2.8508709581     3.7687822982    -6.7834572066
 F      3.1200021684     3.0943544969    -7.3434612535
 H      2.9409358641     5.5347192643    -5.4120720591
 F      2.3069163813     4.9821283055    -5.7775190837
 H      1.1660034017     5.6488949918    -3.1299918795
 F      0.9576930562     6.4690299283    -3.4833677217
 H      4.3456083672     3.1368373241    -2.5247487366
 F      4.5686762009     3.6027470953    -1.7670826975
 H     -0.6636497858     4.7960285041    -6.1420366414
 F     -0.6516784064     3.9010214800    -6.3413055872
 H      4.0403435579     5.1665135075    -1.8661107871
 F      3.7662223662     6.0095460803    -2.1007224948
 H      2.6341201140     1.5082319300    -7.1826905168
 F      2.3949458893     0.6446102846    -6.9881594295
          26
Energy: -104.69215316272499 Kcal/mole
 H      3.9903639145     6.3696314574    -3.6919818415
 F      4.0711367168     6.4041410046    -4.6047654115
 H      0.3093689803     2.9114003014    -5.4382586916
 F      0.9191064693     2.4986506203    -4.8916812541
 H      3.6587755989     1.6297690274    -4.1633488572
 F      3.8656172511     2.5107038116    -4.0148246611
 H      0.0035540712     6.4680917173    -4.8421541830
 F     -0.5704174960     6.3366361810    -5.5451229462
 H      1.3627302888     3.4306866698    -3.5825068092
 F      1.5087102352     4.0227581724    -2.8976490203
 H      2.8217194022     0.2231465264    -5.4364482913
 F      3.1754200549     0.1409183436    -4.5944130342
 H      2.8697845426     3.7801699925    -6.8114789417
 F      3.1235780389     3.0954494548    -7.3661280618
 H      2.9506528691     5.5162020889    -5.4030303586
 F      2.3191116328     4.9685883406    -5.7800765753
 H      1.1818559796     5.6498814969    -3.1617905321
 F      0.9784449127     6.4749447627    -3.5064404201
 H      4.3088477709     3.1170220714    -2.5158447374
 F      4.5377367402     3.5758253548    -1.7555826859
 H     -0.6641649794     4.8033030227    -6.1180256749
 F     -0.6712648879     3.9071950267    -6.3125225919
 H      4.0240430542     5.1425732321    -1.8705411350
 F      3.7435364592     5.9851893626    -2.0990211270
 H      2.6377602496     1.5073432080    -7.1890958056
 F      2.3948308951     0.6499642300    -6.9728190920
          26
Energy: -104.69848531606328 Kcal/mole
 H      3.9779850830     6.3605480265    -3.7028904704
 F      4.0622848835     6.3980196732    -4.6152382217
 H      0.3013376565     2.9012287831    -5.4368165551
 F      0.9195325125     2.4991901958    -4.8917577561
 H      3.6632952769     1.6238240255    -4.1661194322
 F      3.8936272342     2.4983776228    -4.0144876580
 H     -0.0088263906     6.4836851012    -4.8352937279
 F     -0.5697607411     6.3358089880    -5.5454868775
 H      1.3555303880     3.4304671787    -3.5807400795
 F      1.5090921733     4.0227698159    -2.8977427412
 H      2.8382691866     0.2203030924    -5.4434706172
 F      3.1745421271     0.1410691812    -4.5940405160
 H      2.8555574335     3.7840211227    -6.8230770944
 F      3.1243327542     3.0952451612    -7.3655128066
 H      2.9527527971     5.5195367292    -5.4115130026
 F      2.3190002365     4.9684114457    -5.7796265906
 H      1.1790910766     5.6527618781    -3.1533953286
 F      0.9785915844     6.4747919652    -3.5068857662
 H      4.3155456749     3.1207829947    -2.5200776174
 F      4.5373814319     3.5756258465    -1.7553581414
 H     -0.6922465761     4.7920290183    -6.1250415275
 F     -0.7040882290     3.8936335205    -6.3084381052
 H      4.0242717049     5.1429279717    -1.8695164298
 F      3.7435243298     5.9851705445    -2.0990754853
 H      2.6209041903     1.5118433183    -7.1828903035
 F      2.3868321645     0.6490668360    -6.9786452829
          26
Energy: -104.70524063013505 Kcal/mole
 H      3.9779334652     6.3716982317    -3.7025091180
 F      4.0622876217     6.3974281806    -4.6152584516
 H      0.3061404711     2.9030832825    -5.4408545664
 F      0.9192777343     2.4990918189    -4.8915435489
 H      3.6447349886     1.6285480006    -4.1638809471
 F      3.8946118146     2.4981270268    -4.0146064044
 H     -0.0234064813     6.4669572178    -4.8168741456
 F     -0.5831351187     6.3263028465    -5.5294814710
 H      1.3546336623     3.4417341801    -3.5901426918
 F      1.5091397425     4.0221721275    -2.8972439543
 H      2.8027285917     0.2143309695    -5.4318273796
 F      3.1376228524     0.1512240616    -4.5805034975
 H      2.8435783294     3.7700973936    -6.8111443455
 F      3.1119879205     3.0898287426    -7.3643891863
 H      2.9418429838     5.5276492157    -5.4271982681
 F      2.3048260584     4.9798595831    -5.7946556876
 H      1.1630006208     5.6416691259    -3.1323579060
 F      0.9752334412     6.4695536735    -3.4791138174
 H      4.3180047579     3.1241617071    -2.5227835065
 F      4.5372509832     3.5754466136    -1.7552146002
 H     -0.6809066196     4.7874423150    -6.1246019817
 F     -0.6777916413     3.8934157802    -6.3285525931
 H      4.0516052552     5.1484178301    -1.8838400795
 F      3.7746778144     5.9938345647    -2.1062602616
 H      2.6325990550     1.5041252581    -7.2007609594
 F      2.3862117790     0.6494762613    -6.9776972859
          26
Energy: -104.7065720728034 Kcal/mole
 H      3.9934640557     6.3353438347    -3.6935002417
 F      4.0933599269     6.3644006120    -4.6045795569
 H      0.3179964625     2.9147426101    -5.4452298938
 F      0.9186488013     2.4984733185    -4.8913114479
 H      3.6503581214     1.6332361735    -4.1694035341
 F      3.8665427796     2.5116455320    -4.0192363189
 H     -0.0181624818     6.4733154120    -4.8223202104
 F     -0.5834133008     6.3259655590    -5.5291925698
 H      1.3478270295     3.4323655829    -3.5806058717
 F      1.5095008186     4.0226691099    -2.8977498606
 H      2.8054267190     0.2289763671    -5.4316659627
 F      3.1374797230     0.1504471571    -4.5805120603
 H      2.8433759316     3.7698356717    -6.8207097487
 F      3.1013098356     3.0978983204    -7.3889168387
 H      2.9416964439     5.5259575086    -5.4244373595
 F      2.3048338320     4.9799493243    -5.7948021474
 H      1.1871629638     5.6545466064    -3.1515362033
 F      0.9870796598     6.4789660752    -3.4996571749
 H      4.3268388089     3.1237966471    -2.5235453115
 F      4.5693703277     3.5830941205    -1.7678249311
 H     -0.6836083194     4.7878975009    -6.1266689813
 F     -0.6776483223     3.8933916336    -6.3284429436
 H      4.0724010491     5.1599041955    -1.8661172210
 F      3.7686337540     5.9943473859    -2.0948506737
 H      2.6178796446     1.5086993901    -7.1989252972
 F      2.3869926097     0.6492336142    -6.9777946636
          26
Energy: -104.7191052982103 Kcal/mole
 H      3.9989048220     6.3440179890    -3.6926880145
 F      4.0930713068     6.3639404681    -4.6046226437
 H      0.3204512387     2.9191297936    -5.4445703767
 F      0.9185185811     2.4982405886    -4.8913464338
 H      3.6351158832     1.6420514956    -4.1550336500
 F      3.8895678044     2.5113900368    -4.0122270655
 H     -0.0465414383     6.4790572860    -4.8094790306
 F     -0.6208019707     6.3117629240    -5.5045520034
 H      1.3551136039     3.4272667730    -3.5681765079
 F      1.5000690618     4.0195208235    -2.8832589545
 H      2.7807703450     0.2322548888    -5.4181508124
 F      3.1065448764     0.1605409953    -4.5639745588
 H      2.8499768548     3.7798112928    -6.8159987900
 F      3.1189508412     3.0965123732    -7.3652205860
 H      2.9363492244     5.5297201397    -5.4208684418
 F      2.3051174896     4.9797497254    -5.7949914702
 H      1.1759956614     5.6543529614    -3.1458145507
 F      0.9876720594     6.4789763476    -3.4999606954
 H      4.3444780807     3.1238740258    -2.5200743073
 F      4.5616784357     3.5898043240    -1.7607180253
 H     -0.6754163699     4.7820182939    -6.1238432864
 F     -0.6481763561     3.8933564245    -6.3484029968
 H      4.0515562525     5.1512599807    -1.8712011653
 F      3.7697395223     5.9948059415    -2.0945809822
 H      2.6257787873     1.5095196135    -7.1870009546
 F      2.3865735784     0.6491901032    -6.9784272224
          26
Energy: -104.68352993513182 Kcal/mole
 H      3.9940302300     6.3517887935    -3.6930702698
 F      4.0933298927     6.3635282449    -4.6046023659
 H      0.2930873064     2.9157323457    -5.4126682451
 F      0.8681875895     2.4882880315    -4.8404444927
 H      3.6278539166     1.6534204934    -4.1512916576
 F      3.8790705429     2.5238882817    -4.0096405502
 H     -0.0303410387     6.4506830233    -4.8140784029
 F     -0.6197428099     6.3034445856    -5.5009665995
 H      1.3228266335     3.4337204605    -3.5661768568
 F      1.5117769233     4.0354932546    -2.9005521186
 H      2.7850189607     0.2282217178    -5.4200863425
 F      3.1063194972     0.1607549457    -4.5638718834
 H      2.8635873197     3.7711353912    -6.8083371592
 F      3.1246544292     3.0837630409    -7.3562899095
 H      2.9506803162     5.5112837238    -5.4187201922
 F      2.3043572583     4.9807277347    -5.7951054299
 H      1.1842816068     5.6515395995    -3.1570739404
 F      0.9872325092     6.4791255900    -3.4993634108
 H      4.3257808946     3.1398667141    -2.5260120829
 F      4.5910187519     3.5989374324    -1.7778196246
 H     -0.6649604410     4.7868616072    -6.1387044869
 F     -0.6371827021     3.8961091341    -6.3547540852
 H      4.0678354653     5.1595919947    -1.8612946245
 F      3.7688759477     5.9943639474    -2.0951065013
 H      2.6252877869     1.5083308239    -7.1923901172
 F      2.3865996249     0.6492531657    -6.9781413398
          26
Energy: -104.71309049364082 Kcal/mole
 H      3.9854669316     6.3774512503    -3.7011974886
 F      4.0787523751     6.3909079416    -4.6133409771
 H      0.2810916831     2.8944303136    -5.4159647459
 F      0.8688239296     2.4894180551    -4.8402696210
 H      3.6233837925     1.6488095768    -4.1554656118
 F      3.8683553485     2.5215132683    -4.0166628613
 H     -0.0416811955     6.4676179882    -4.8083216181
 F     -0.6191412408     6.3025462248    -5.5012719836
 H      1.3318764307     3.4397123700    -3.5502651374
 F      1.5052238915     4.0326497026    -2.8725742215
 H      2.7929440777     0.2346694342    -5.4224845159
 F      3.1058990880     0.1604129093    -4.5637446659
 H      2.8095519108     3.7801598798    -6.8259817319
 F      3.0658867737     3.0926530403    -7.3759960804
 H      2.9476956739     5.5201969047    -5.4263644491
 F      2.3045155867     4.9802549110    -5.7946999198
 H      1.1787993928     5.6488218251    -3.1605653082
 F      0.9875233280     6.4792697616    -3.4991782018
 H      4.2988629004     3.1455611363    -2.5319284849
 F      4.5293544593     3.5929195059    -1.7653561593
 H     -0.6779876050     4.7603457326    -6.1338208219
 F     -0.6389635501     3.8722898687    -6.3590382851
 H      4.0476203327     5.1508770345    -1.8677466978
 F      3.7699483137     5.9948262559    -2.0947642337
 H      2.6167742976     1.5083698390    -7.1791353209
 F      2.3881749173     0.6466724593    -6.9644053762
          26
Energy: -104.70643390660443 Kcal/mole
 H      3.9858772764     6.3477593379    -3.6969909534
 F      4.0647186093     6.3672142838    -4.6103882105
 H      0.2920197725     2.8973498958    -5.4248776745
 F      0.8682442197     2.4892631780    -4.8397968107
 H      3.6348830901     1.6475127187    -4.1666262979
 F      3.8677453373     2.5215820636    -4.0160708127
 H     -0.0571663981     6.4636553731    -4.8022610719
 F     -0.6164436196     6.2919499847    -5.5083880074
 H      1.3316821346     3.4310553518    -3.5425364215
 F      1.5052341985     4.0331089374    -2.8729842120
 H      2.7850294499     0.2251505531    -5.4203264402
 F      3.1063189408     0.1609178639    -4.5638591468
 H      2.8316987152     3.7691310764    -6.8013263930
 F      3.1010468225     3.0908319584    -7.3565298725
 H      2.9038068025     5.5082742583    -5.3926866913
 F      2.2724874403     4.9568437057    -5.7645054760
 H      1.1667238536     5.6534794458    -3.1430583049
 F      0.9881639074     6.4790226856    -3.5001069079
 H      4.2779027323     3.1158353571    -2.4934834612
 F      4.4956659974     3.5693627524    -1.7268146526
 H     -0.6675627192     4.7614893890    -6.1438765140
 F     -0.6419147260     3.8726140844    -6.3677779952
 H      4.0300260896     5.1468648474    -1.8619747203
 F      3.7708816477     5.9950390932    -2.0950704238
 H      2.6266646423     1.5060853795    -7.1775144525
 F      2.3876502574     0.6467936446    -6.9644913595
          26
Energy: -104.71561821350299 Kcal/mole
 H      3.9862975162     6.3626048169    -3.6967656507
 F      4.0646963165     6.3664267654    -4.6104001623
 H      0.2894553358     2.9028862645    -5.4184194708
 F      0.8683802572     2.4889694864    -4.8401394035
 H      3.6167473338     1.6425852245    -4.1534904796
 F      3.8540585194     2.5166210092    -4.0098456115
 H     -0.0539512184     6.4488888083    -4.8065954996
 F     -0.6413183466     6.2899511061    -5.4926185776
 H      1.3069608820     3.4418157505    -3.5378384119
 F      1.4878910695     4.0290677835    -2.8571855510
 H      2.8039766962     0.2328174291    -5.4189637718
 F      3.1262107971     0.1609315868    -4.5634600547
 H      2.8240318390     3.7676592320    -6.8033092122
 F      3.1014535326     3.0909100363    -7.3564246885
 H      2.9113442821     5.5013192429    -5.3953288585
 F      2.2720875944     4.9572126532    -5.7643653151
 H      1.1790266005     5.6578389837    -3.1394020235
 F      0.9875112751     6.4787914222    -3.5003008652
 H      4.2891112178     3.1215333899    -2.5134050094
 F      4.5132719654     3.5651664513    -1.7428009177
 H     -0.6757314628     4.7602337536    -6.1400229952
 F     -0.6414813930     3.8726806930    -6.3679824155
 H      4.0610625400     5.1394344335    -1.8655845916
 F      3.8005209533     5.9925846887    -2.0780504095
 H      2.6300805277     1.5055409601    -7.1758413747
 F      2.3874690525     0.6468225247    -6.9645801125
          26
Energy: -104.70845876567597 Kcal/mole
 H      3.9855763201     6.3508293781    -3.6854166445
 F      4.0567354891     6.3582327573    -4.5996215245
 H      0.3028723928     2.8973473635    -5.4039493477
 F      0.8848259366     2.4891517821    -4.8246433490
 H      3.6108840747     1.6440568326    -4.1526215492
 F      3.8543695518     2.5165429438    -4.0098917062
 H     -0.0569652833     6.4539646015    -4.8052190420
 F     -0.6411584574     6.2896818470    -5.4926915955
 H      1.3197057872     3.4339750336    -3.5342784395
 F      1.4872149818     4.0294837154    -2.8573743994
 H      2.7802328251     0.2304316508    -5.4098189260
 F      3.1274703546     0.1610581468    -4.5639451676
 H      2.8265383399     3.7682451706    -6.7894765949
 F      3.0978143086     3.0882595439    -7.3416703076
 H      2.9143131106     5.4904971207    -5.3848517322
 F      2.2719301050     4.9577867418    -5.7649211025
 H      1.1723359798     5.6422602994    -3.1422959202
 F      0.9779718410     6.4656236159    -3.4961100390
 H      4.2958123707     3.1048099352    -2.5054618106
 F      4.5129164847     3.5660535919    -1.7432222860
 H     -0.6859350516     4.7630732192    -6.1532762136
 F     -0.6409401162     3.8725300659    -6.3672793629
 H      4.0604253705     5.1426649348    -1.8522957574
 F      3.8005547537     5.9924133180    -2.0787553515
 H      2.5905517757     1.5079653512    -7.1797120083
 F      2.3480016580     0.6505194402    -6.9632750660
          26
Energy: -104.69774658958782 Kcal/mole
 H      3.9768502353     6.3391471276    -3.6902859530
 F      4.0583631540     6.3563979421    -4.6034929686
 H      0.2912657629     2.8848127889    -5.4004697225
 F      0.8924883086     2.4806023859    -4.8383003524
 H      3.6151872368     1.6440752015    -4.1542138894
 F      3.8506143149     2.5173768247    -4.0031928118
 H     -0.0643702114     6.4604471222    -4.7889580144
 F     -0.6361110785     6.2994707657    -5.4875909606
 H      1.3227809095     3.4170628811    -3.5235058587
 F      1.4785414665     4.0187133043    -2.8492326076
 H      2.7428031732     0.2398709915    -5.3860248351
 F      3.0853790455     0.1686453866    -4.5384060028
 H      2.8035537105     3.7592558168    -6.7962244360
 F      3.0795252030     3.0862067543    -7.3545556054
 H      2.9090742686     5.5053339315    -5.3973521059
 F      2.2722080134     4.9569996833    -5.7642579865
 H      1.1638989514     5.6428073550    -3.1365436846
 F      0.9784194058     6.4655945959    -3.4964151818
 H      4.2848515238     3.1134251276    -2.5074161972
 F      4.5134979323     3.5655965759    -1.7431186103
 H     -0.6884229516     4.7561890564    -6.1229210557
 F     -0.6696645043     3.8625724782    -6.3278272093
 H      4.0524172344     5.1548102047    -1.8316738971
 F      3.7810131353     5.9953985595    -2.0779258672
 H      2.5983977827     1.5013571285    -7.1777809491
 F      2.3616384308     0.6465998401    -6.9449205036
          26
Energy: -104.71313571844384 Kcal/mole
 H      3.9779458447     6.3519347837    -3.6900416042
 F      4.0583050345     6.3557195865    -4.6035059308
 H      0.2845928580     2.8953825132    -5.4051747652
 F      0.8682725301     2.4842084551    -4.8297245638
 H      3.6013851271     1.6579574992    -4.1508130919
 F      3.8313206438     2.5359691465    -4.0199918188
 H     -0.0625454750     6.4444555345    -4.7951293397
 F     -0.6474259581     6.2823321394    -5.4825301145
 H      1.3209339464     3.4306318944    -3.5327221311
 F      1.4911929636     4.0271443979    -2.8573898423
 H      2.7624946316     0.2389686820    -5.3937804740
 F      3.0843344591     0.1686932521    -4.5379945841
 H      2.8158096688     3.7723410090    -6.8063399340
 F      3.0788750527     3.0855126151    -7.3540190016
 H      2.9076863653     5.4964808994    -5.3993699020
 F      2.2558377948     4.9654820202    -5.7654609172
 H      1.1649311619     5.6383138989    -3.1475578322
 F      0.9783646494     6.4658329633    -3.4958309067
 H      4.2750655034     3.1227467523    -2.5098734608
 F      4.5140170581     3.5651020852    -1.7429882582
 H     -0.6921256628     4.7532080565    -6.1107013396
 F     -0.6694680840     3.8627306134    -6.3284754370
 H      4.0405954833     5.1467029499    -1.8472790633
 F      3.7816402519     5.9958286307    -2.0770980492
 H      2.5825094139     1.5101577473    -7.1601850508
 F      2.3624812721     0.6461329876    -6.9458539253
          26
Energy: -104.70966223491202 Kcal/mole
 H      3.9765644046     6.3421822830    -3.6902594900
 F      4.0583783167     6.3562369341    -4.6034943724
 H      0.2558639631     2.8850601953    -5.3803896539
 F      0.8397049078     2.4725775387    -4.8060406231
 H      3.5963483754     1.6611565989    -4.1627175467
 F      3.8315878318     2.5357994416    -4.0193603150
 H     -0.0704547451     6.4532863011    -4.7906057305
 F     -0.6470063896     6.2818636876    -5.4827700815
 H      1.3147950213     3.4279792671    -3.5287844484
 F      1.4915186194     4.0272851136    -2.8575987273
 H      2.7499223633     0.2161400264    -5.3892911685
 F      3.0767603193     0.1634625893    -4.5341356048
 H      2.8019520170     3.7645122487    -6.8034300058
 F      3.0796101691     3.0859279127    -7.3541733666
 H      2.9110330578     5.4981413711    -5.4160410011
 F      2.2667842697     4.9630608928    -5.7895666103
 H      1.1727855456     5.6373348095    -3.1542542359
 F      0.9779479925     6.4658849018    -3.4954756780
 H      4.2885987432     3.1153380162    -2.5096532669
 F      4.5132991510     3.5654951015    -1.7429999390
 H     -0.7193250678     4.7428299411    -6.1001719321
 F     -0.6876258358     3.8529540748    -6.3192725970
 H      4.0521926172     5.1443619080    -1.8660004121
 F      3.7902693635     5.9943278111    -2.0892562582
 H      2.5943295853     1.5051435122    -7.1639658101
 F      2.3639574858     0.6437697519    -6.9498328120
          26
Energy: -104.70497358742674 Kcal/mole
 H      3.9917383021     6.3495573736    -3.7080418301
 F      4.0664306346     6.3665712623    -4.6218364367
 H      0.2587272741     2.8865258952    -5.3822350501
 F      0.8395530158     2.4724997867    -4.8059427291
 H      3.5947243730     1.6611625688    -4.1600533363
 F      3.8316739814     2.5357991249    -4.0195016452
 H     -0.0673142994     6.4511887426    -4.7927163782
 F     -0.6471729830     6.2819749583    -5.4826581165
 H      1.2963375459     3.4264970867    -3.5349248139
 F      1.4717407591     4.0212989789    -2.8594002608
 H      2.7649946623     0.2321665598    -5.4114481225
 F      3.0991929084     0.1719564570    -4.5596410575
 H      2.8188400408     3.7687831763    -6.8004766361
 F      3.0787142985     3.0857013499    -7.3543300360
 H      2.8999972198     5.5120783569    -5.4174197059
 F      2.2673696954     4.9623215679    -5.7894934732
 H      1.1496635114     5.6363362425    -3.1444510481
 F      0.9791745630     6.4659378734    -3.4959957144
 H      4.2755385061     3.1239180749    -2.5106949267
 F      4.5139919664     3.5650399492    -1.7429446813
 H     -0.7098152165     4.7476281793    -6.1194498132
 F     -0.6881303115     3.8526995394    -6.3182499500
 H      4.0495455051     5.1473321863    -1.8520808463
 F      3.7904097866     5.9941702447    -2.0899946590
 H      2.5958839000     1.5029529584    -7.1709670991
 F      2.3638750329     0.6438859557    -6.9494614098
          26
Energy: -104.70830785730129 Kcal/mole
 H      3.9818340145     6.3493079423    -3.6928426769
 F      4.0601186893     6.3534035814    -4.6064857886
 H      0.2539216983     2.8746369461    -5.3857713921
 F      0.8398079405     2.4731304680    -4.8057551343
 H      3.5968879289     1.6541077935    -4.1364992636
 F      3.8255892366     2.5293228960    -3.9862220656
 H     -0.0646644496     6.4396470302    -4.8022016779
 F     -0.6489199569     6.2835979935    -5.4915370102
 H      1.3039162007     3.4262890624    -3.5328526397
 F      1.4795990120     4.0214921833    -2.8577542805
 H      2.7719824196     0.2467893576    -5.4129922592
 F      3.0988222240     0.1711807514    -4.5595591447
 H      2.7940424154     3.7645462717    -6.8075354902
 F      3.0800297552     3.0859261079    -7.3539555801
 H      2.8937365251     5.4960228163    -5.3928321340
 F      2.2504255308     4.9589625455    -5.7651307108
 H      1.1602133874     5.6395494838    -3.1421745073
 F      0.9786149165     6.4657674184    -3.4961164797
 H      4.2857607863     3.1228837100    -2.5045848682
 F      4.5295660582     3.5709393236    -1.7425519578
 H     -0.7048125059     4.7459993320    -6.1117999268
 F     -0.6883956937     3.8527859460    -6.3186557588
 H      4.0486160776     5.1467129850    -1.8532784532
 F      3.7904590906     5.9942030919    -2.0899311287
 H      2.5978101380     1.5017441908    -7.1736086172
 F      2.3637728505     0.6439500780    -6.9493212834
          26
Energy: -104.71064120522577 Kcal/mole
 H      3.9800697214     6.3511587900    -3.6929893323
 F      4.0602122810     6.3533053982    -4.6064780089
 H      0.2536249517     2.8829080287    -5.3796499267
 F      0.8398236822     2.4726917061    -4.8060798639
 H      3.6078408933     1.6516537187    -4.1384212597
 F      3.8250082071     2.5294530790    -3.9861201082