          5
Energy: -0.10907654673518272 Kcal/mole
 Ar    -6.8550083862    -3.2061799823    -0.1966599089
 Ar    -7.4898215570    -6.8622265121     2.8779828918
 Ar     6.3851853328    -1.1606480536    -1.2071487729
 Ar    -2.5128979406    -4.6782431412    -7.0773188498
 Ar     2.5099233041     5.2527468339     5.9578908373
          5
Energy: -0.25338653336593353 Kcal/mole
 Ar    -2.9865260299     7.9132788494     4.1450323576
 Ar    -5.9627165114     7.9529251698    -0.0213167219
 Ar     2.7988006131     7.9708865572     2.7900019900
 Ar    -4.7728275178     5.4404785516    -4.7675349933
 Ar    -1.2118354618     3.2136615050     2.0813821306
          5
Energy: -0.6416899271793907 Kcal/mole
 Ar     0.6649582715     0.9481001652    -1.7969772128
 Ar     2.1699115624     5.7161191065    -4.1923106624
 Ar    -1.6619352942     4.7679323632     7.1714604463
 Ar    -2.4136885908    -0.0954176760    -3.3730762019
 Ar     4.1557702896     2.7519290967    -3.5565393152
          5
Energy: -0.3713077453002821 Kcal/mole
 Ar    -3.5966773213     6.3746602869     5.5047420326
 Ar     3.9845617457     2.7659055675     4.6796663967
 Ar     7.5902523618    -0.6509723292     3.4273225717
 Ar     1.4950342035     4.8851996794     6.5790486517
 Ar    -3.7671360050    -1.3745937829    -1.0038617979
          5
Energy: -0.784726838382607 Kcal/mole
 Ar    -4.3782052156     8.0385796863     1.9207753430
 Ar    -0.1216445936     6.4937366097    -4.5858150412
 Ar    -1.4199419746     0.8234975142    -0.3339858850
 Ar     0.4703718762     6.5644289887    -0.1938695457
 Ar     0.7162465474     3.6713792013    -2.7060563307
          5
Energy: -1.2719712664598632 Kcal/mole
 Ar    -1.2512090068    -3.5834367420     4.0707708906
 Ar    -2.9750504228     2.9268166856     3.6152669344
 Ar     0.4306971646    -0.1590852154     2.9194699939
 Ar     0.4836158811    -1.9876520800     7.3379499684
 Ar    -4.1799206411    -0.8886015660     3.7053859398
          5
Energy: -1.8541288498186401 Kcal/mole
 Ar    -4.8132562172    -6.9325123515     5.4408176601
 Ar    -1.8393562941    -5.3756658606     0.0643721134
 Ar    -3.5616698410    -3.7771223115     3.3683566817
 Ar    -0.9748171313    -7.0449050461     3.3383459024
 Ar    -4.1257917675    -7.8535200184     1.8362848318
          5
Energy: -1.45166330719819 Kcal/mole
 Ar    -5.1031742491    -4.0425892298     3.3104203484
 Ar    -1.4843772756    -2.4317273084     3.6350571823
 Ar    -5.8784171387    -6.8026162058     0.8051740103
 Ar     0.0953249511    -2.5770452274    -0.3293227798
 Ar    -2.0532789284    -5.9881529959     1.4134196505
          5
Energy: -2.0685775155797335 Kcal/mole
 Ar    -1.9945077435    -2.4567958357    -2.5577661354
 Ar    -3.2889126344    -3.1242165474     0.9863725083
 Ar    -1.6161864723     0.1575351940     0.1436983486
 Ar    -1.1672920755    -1.7306765122     3.5143233678
 Ar     0.4754132356    -2.9359742680     0.3578886463
          5
Energy: -2.129136183589006 Kcal/mole
 Ar    -1.7190772962    -2.4419202821    -2.6069592052
 Ar    -3.4814924787    -3.1574693361     0.6989208643
 Ar    -1.6709039168     0.1619398641     0.1627423766
 Ar    -1.5076862499    -1.5800068424     3.5392680448
 Ar     0.3402058218    -3.0546318126     0.5394918697
