          30
Energy: -121.628951440091 Kcal/mole
 H      0.9590059925     3.2070305523    -0.1999710849
 F      0.8818414948     3.4910010292    -1.0684729033
 H      1.8584596496     2.1007622621    -4.2639452957
 F      2.5374962923     2.7059352314    -4.3804095178
 H      0.1114604586    -1.0526165279    -0.2190304163
 F      0.0694639190    -1.8131826324     0.2915227066
 H      4.7164832965    -1.0871909334    -0.0646994509
 F      4.1486106985    -1.2859987034    -0.7567147564
 H     -0.1168119559     1.6210577666    -3.4613244122
 F      0.5495532790     1.1534777786    -3.8834799860
 H      2.4610885000    -0.1369470649     1.7851888202
 F      2.7892433240     0.6189976960     1.3830061131
 H      5.0588001511     2.4504215114     0.7416621630
 F      5.7779985396     2.0131615594     1.1055940416
 H      1.3252390151     0.4661345392    -1.3816400261
 F      0.5181835466     0.4003837705    -0.9512596045
 H      1.0558848693    -1.7303336799     1.6285063342
 F      1.6666982969    -1.4864366537     2.2674978813
 H      1.7190588777     1.9193938545     1.3652822730
 F      1.0463515974     2.5401154941     1.3099780125
 H      3.5589917065     3.2429013258    -3.1782250348
 F      4.0991802370     3.5496354798    -2.5036885196
 H     -0.4469841777     3.0114128800    -1.9588385068
 F     -1.0334460512     2.6540138615    -2.5664711364
 H      5.7620589698     0.3576146102     1.2065610495
 F      5.6956260986    -0.5546606753     1.1415266198
 H      3.3921445925    -0.0640942974    -1.5553020059
 F      2.8795603532     0.6063731794    -1.9139379775
 H      3.8068640257     3.2853000637    -0.9002449675
 F      3.7265419571     3.0924970934    -0.0073483442
