          30
Energy: -121.59619431948708 Kcal/mole
 H      0.9454902197     3.1901154217    -0.2098718666
 F      0.8858846716     3.4890694687    -1.0747202096
 H      1.8684907999     2.0669761784    -4.2817789926
 F      2.5611156542     2.6538954181    -4.4109518121
 H      0.1355049984    -1.0468804260    -0.2137244543
 F      0.0932438967    -1.8078833092     0.2961555424
 H      4.7168675435    -1.0809982243    -0.0761715321
 F      4.1640865294    -1.2757583845    -0.7814307968
 H     -0.1263470819     1.6393079538    -3.4758895647
 F      0.5308476796     1.1621855567    -3.9017278716
 H      2.4694213094    -0.1485570100     1.7602332264
 F      2.7764418034     0.6149915058     1.3557322003
 H      5.0527779187     2.4404331719     0.7104562967
 F      5.7792610992     1.9994293310     1.0548787130
 H      1.3436277656     0.4650110888    -1.3884082334
 F      0.5390760349     0.3998930267    -0.9532701513
 H      1.0929162655    -1.7460306632     1.6237358528
 F      1.7059080453    -1.5095541639     2.2634302668
 H      1.6863861692     1.8966531303     1.3440274390
 F      1.0101156710     2.5142961885     1.2985932458
 H      3.5437779131     3.2333520383    -3.1928999864
 F      4.0547419039     3.5717108264    -2.5107576767
 H     -0.4441928796     3.0277136977    -1.9647820843
 F     -1.0322334554     2.6680851439    -2.5695668266
 H      5.7498444569     0.3427018786     1.2026361861
 F      5.6585429193    -0.5689571689     1.1648101317
 H      3.4008072668    -0.0629140836    -1.5924890852
 F      2.8844776004     0.6081626868    -1.9445524939
 H      3.7855625357     3.2924366270    -0.9082413472
 F      3.7089915965     3.0921111536    -0.0166721710
          30
Energy: -121.59071287253172 Kcal/mole
 H      0.9475791948     3.2057100383    -0.2047916391
 F      0.8857738563     3.4882422103    -1.0749897039
 H      1.8688555569     2.0634937559    -4.2965903358
 F      2.5610963046     2.6540801526    -4.4101661046
 H      0.1383806132    -1.0495106395    -0.2173822413
 F      0.0930913520    -1.8077437825     0.2963495795
 H      4.7284030663    -1.0933868096    -0.0820314598
 F      4.1634745966    -1.2751011987    -0.7811199412
 H     -0.1209768679     1.6417008042    -3.4703632544
 F      0.5305628022     1.1620586215    -3.9020210296
 H      2.4712612341    -0.1449820668     1.7682727472
 F      2.7763441997     0.6148018634     1.3553057223
 H      5.0523391237     2.4378419166     0.7080831232
 F      5.7792843762     1.9995667911     1.0550046044
 H      1.3427626723     0.4660514533    -1.3898473430
 F      0.5391219261     0.3998378377    -0.9531938098
 H      1.0844571262    -1.7523653816     1.6343686278
 F      1.7063567831    -1.5092181218     2.2628662226
 H      1.6756946656     1.8856661585     1.3505849653
 F      1.0106828306     2.5148790220     1.2982453842
 H      3.5419105475     3.2415932980    -3.1955286333
 F      4.0548409633     3.5712736466    -2.5106182331
 H     -0.4403590910     3.0104102438    -1.9585279365
 F     -1.0324368290     2.6690030522    -2.5698985947
 H      5.7555759713     0.3466200055     1.1945642194
 F      5.6902580639    -0.5668781637     1.1482644805
 H      3.4039309986    -0.0587538097    -1.5891969776
 F      2.8843118936     0.6079419939    -1.9447271326
 H      3.7802847538     3.2943072064    -0.9082558062
 F      3.7092715706     3.0920119237    -0.0166714039
          30
Energy: -121.59694559012497 Kcal/mole
 H      0.9561537064     3.2098265249    -0.2041191282
 F      0.8853189983     3.4880238402    -1.0750253791
 H      1.8675907644     2.0677450084    -4.2831247643
 F      2.5611633990     2.6538546335    -4.4108804221
 H      0.1407525940    -1.0503752874    -0.2184416121
 F      0.0929655239    -1.8076979149     0.2964057767
 H      4.7238471381    -1.0916898257    -0.0788165304
 F      4.1637162781    -1.2751912198    -0.7812904858
 H     -0.1214691301     1.6345181914    -3.4632501548
 F      0.5305889155     1.1624396426    -3.9023983631
 H      2.4711926044    -0.1464830579     1.7654474409
 F      2.7763478403     0.6148814875     1.3554555983
 H      5.0515956068     2.4371690465     0.7087933383
 F      5.7793238181     1.9996024853     1.0549669291
 H      1.3451311198     0.4708673230    -1.3846912649
 F      0.5389962854     0.3995823670    -0.9534673279
 H      1.0849605908    -1.7477537908     1.6321086667
 F      1.7063300754    -1.5094627560     2.2629861083
 H      1.6969233742     1.9179063878     1.3506781956
 F      1.0350479388     2.5510406025     1.3065083632
 H      3.5428575042     3.2400888407    -3.1955112132
 F      4.0547907295     3.5713534546    -2.5106191572
 H     -0.4447311515     3.0268229091    -1.9637309225
 F     -1.0322049013     2.6681323982    -2.5696225883
 H      5.7566032491     0.3463498028     1.1982765450
 F      5.6902035692    -0.5668638301     1.1480675502
 H      3.4119652364    -0.0493127343    -1.5835107094
 F      2.8838856958     0.6074411666    -1.9450287760
 H      3.7767230531     3.2999361814    -0.9072354901
 F      3.7094605106     3.0917133196    -0.0167255294
          30
Energy: -121.60013500411428 Kcal/mole
 H      0.9574002822     3.2097700463    -0.2042395091
 F      0.8852528703     3.4880268363    -1.0750189931
 H      1.8642955022     2.0714283097    -4.2842220142
 F      2.5613382050     2.6536592428    -4.4108222155
 H      0.1364519556    -1.0471519625    -0.2140501265
 F      0.0931936628    -1.8078689049     0.2961728186
 H      4.7229446330    -1.0906014166    -0.0783828563
 F      4.1637641539    -1.2752489574    -0.7813134912
 H     -0.1261506100     1.6320406435    -3.4614693734
 F      0.5351305796     1.1589665635    -3.8854942584
 H      2.4688271585    -0.1454446689     1.7656065594
 F      2.7764733218     0.6148264033     1.3554471574
 H      5.0611387010     2.4522284251     0.7122725977
 F      5.7765572856     2.0059002209     1.0726285092
 H      1.3393761882     0.4628291581    -1.3964890955
 F      0.5393015712     0.4000087730    -0.9528414802
 H      1.0849494542    -1.7414638797     1.6297813894
 F      1.7063306662    -1.5097964213     2.2631095650
 H      1.7090258079     1.9310902489     1.3543277556
 F      1.0344059326     2.5503412291     1.3063147625
 H      3.5513371003     3.2318931632    -3.1977745288
 F      4.0543409065     3.5717882163    -2.5104990935
 H     -0.4380776477     3.0163937339    -1.9641411919
 F     -1.0325578543     2.6686856419    -2.5696008245
 H      5.7587515413     0.3458855465     1.2035384984
 F      5.6900896073    -0.5668392023     1.1477884157
 H      3.3990810677    -0.0564324559    -1.5779846001
 F      2.8845691712     0.6078188514    -1.9453219233
 H      3.7790177122     3.2911144988    -0.9090737678
 F      3.7093387842     3.0921812895    -0.0166280130
          30
Energy: -121.59534009122551 Kcal/mole
 H      0.9671215632     3.2003604236    -0.2081718199
 F      0.8847371788     3.4885259950    -1.0748103931
 H      1.8720501248     2.0624391002    -4.2834559025
 F      2.5609268402     2.6541360996    -4.4108628559
 H      0.1324055200    -1.0453025779    -0.2116092815
 F      0.0934083169    -1.8079670104     0.2960433374
 H      4.7173209956    -1.0890818785    -0.0743460399
 F      4.1640624748    -1.2753295654    -0.7815276350
 H     -0.1271841644     1.6322345702    -3.4633031445
 F      0.5351854073     1.1589562761    -3.8853969811
 H      2.4733371885    -0.1476508911     1.7648668613
 F      2.7762340751     0.6149434383     1.3554863967
 H      5.0579849180     2.4490655890     0.7146538594
 F      5.7767245865     2.0060680021     1.0725021888
 H      1.3427155852     0.4606292557    -1.3907198482
 F      0.5391244239     0.4001254728    -0.9531475254
 H      1.0909563749    -1.7477867540     1.6262741108
 F      1.7060120129    -1.5094610074     2.2632956181
 H      1.7074856270     1.9292026821     1.3514687427
 F      1.0344876357     2.5504413601     1.3064664265
 H      3.5408846186     3.2384688757    -3.1932440527
 F      4.0548953865     3.5714393900    -2.5107394248
 H     -0.4381548548     3.0174082698    -1.9646491451
 F     -1.0325537587     2.6686318231    -2.5695738787
 H      5.7417964213     0.3538506561     1.2134974174
 F      5.6747904599    -0.5587930042     1.1544995319
 H      3.4033175232    -0.0565744630    -1.5842573437
 F      2.8843444371     0.6078263846    -1.9449891687
 H      3.7811150846     3.2835024374    -0.9105687019
 F      3.7092275235     3.0925850917    -0.0165487102
          30
Energy: -121.5973784305495 Kcal/mole
 H      0.9454454438     3.2050559715    -0.2048554664
 F      0.8858870469     3.4882769070    -1.0749863180
 H      1.8714162634     2.0636122801    -4.2814585399
 F      2.5609604651     2.6540738652    -4.4109688114
 H      0.1364256401    -1.0492227981    -0.2171256829
 F      0.0931950588    -1.8077590518     0.2963359697
 H      4.7191323267    -1.0856649245    -0.0766782173
 F      4.1639663879    -1.2755108269    -0.7814039184
 H     -0.1274315918     1.6314353342    -3.4627964588
 F      0.5351985327     1.1589986738    -3.8854238596
 H      2.4732853908    -0.1414284392     1.7762045974
 F      2.7762368228     0.6146133516     1.3548849560
 H      5.0523647480     2.4408169971     0.7007119859
 F      5.7738271354     1.9984923113     1.0538831851
 H      1.3414626112     0.4629067066    -1.3926931828
 F      0.5391908913     0.4000046593    -0.9530428446
 H      1.0853804187    -1.7498211284     1.6324798568
 F      1.7063078045    -1.5093530885     2.2629664176
 H      1.7087441539     1.9304765784     1.3501763599
 F      1.0344208737     2.5503737829     1.3065349844
 H      3.5368948412     3.2464741245    -3.1940824793
 F      4.0551070350     3.5710147300    -2.5106949482
 H     -0.4370167395     3.0225189410    -1.9687525916
 F     -1.0326141330     2.6683607138    -2.5693562004
 H      5.7433481572     0.3545616336     1.1987770468
 F      5.6747081439    -0.5588307199     1.1552804135
 H      3.4035374494    -0.0526168457    -1.5773765866
 F      2.8843327705     0.6076164421    -1.9453541770
 H      3.7776089512     3.2945890682    -0.9084006890
 F      3.7094135158     3.0919969716    -0.0166637183
          30
Energy: -121.59929571457619 Kcal/mole
 H      0.9496682012     3.2152148173    -0.2019163434
 F      0.8856630393     3.4877380037    -1.0751422317
 H      1.8776258758     2.0585739716    -4.2820155837
 F      2.5772873895     2.6372103214    -4.4106341709
 H      0.1371757871    -1.0482325266    -0.2155956145
 F      0.0931552653    -1.8078115834     0.2962548031
 H      4.7194799187    -1.0860039542    -0.0768609118
 F      4.1639479490    -1.2754928421    -0.7813942268
 H     -0.1303011207     1.6346843422    -3.4710354447
 F      0.5353507546     1.1588263214    -3.8849868004
 H      2.4695325763    -0.1455714823     1.7658998375
 F      2.7764359010     0.6148331305     1.3554315997
 H      5.0490348964     2.4440267660     0.7117477372
 F      5.7740037763     1.9983220405     1.0532977640
 H      1.3398503205     0.4672075332    -1.3949883770
 F      0.5392764196     0.3997765104    -0.9529210899
 H      1.0832384717    -1.7467261541     1.6334214743
 F      1.7064214299    -1.5095172698     2.2629164669
 H      1.6992469642     1.9200673949     1.3465084818
 F      1.0349246777     2.5509259660     1.3067295569
 H      3.5516289227     3.2339376137    -3.1925653873
 F      4.0662602626     3.5671111677    -2.5106277312
 H     -0.4438114393     3.0192697868    -1.9602122666
 F     -1.0322536899     2.6685330739    -2.5698092449
 H      5.7505267230     0.3540423220     1.1977132357
 F      5.6743273376    -0.5588031716     1.1553368463
 H      3.4002981300    -0.0587761592    -1.5839890429
 F      2.8845046089     0.6079431795    -1.9450034015
 H      3.7847204133     3.2890865738    -0.9090589491
 F      3.7090362691     3.0922888662    -0.0166287991
          30
Energy: -121.59616457420283 Kcal/mole
 H      0.9529167663     3.2036749070    -0.2058519192
 F      0.8854907105     3.4883501693    -1.0749334585
 H      1.8741892487     2.0629176611    -4.2812962804
 F      2.5774696946     2.6369798987    -4.4106723282
 H      0.1333775066    -1.0492896440    -0.2174714152
 F      0.0933567553    -1.8077555058     0.2963543100
 H      4.7142409412    -1.0770872119    -0.0752101076
 F      4.1642258646    -1.2759658547    -0.7814817982
 H     -0.1252042827     1.6327312924    -3.4607664018
 F      0.5350803791     1.1589299262    -3.8855315494
 H      2.4704586624    -0.1492051333     1.7597949734
 F      2.7763867743     0.6150258873     1.3557554486
 H      5.0548107888     2.4437287493     0.6932384340
 F      5.7860013470     2.0070886165     1.0332307310
 H      1.3435676392     0.4635598285    -1.3887339034
 F      0.5390792244     0.3999700127    -0.9532528752
 H      1.0974720512    -1.7565921430     1.6233835081
 F      1.7056663714    -1.5089939018     2.2634489578
 H      1.7095436763     1.9324955496     1.3641036432
 F      1.0343784609     2.5502666811     1.3057961742
 H      3.5577346856     3.2264340349    -3.1934343101
 F      4.0659363660     3.5675092152    -2.5105816369
 H     -0.4432640284     3.0208564310    -1.9616578078
 F     -1.0322827288     2.6684489061    -2.5697325622
 H      5.7559980498     0.3537272622     1.1941289492
 F      5.6740370964    -0.5587864584     1.1555269844
 H      3.4057701348    -0.0586659037    -1.5917346510
 F      2.8842143317     0.6079373307    -1.9445925149
 H      3.7838984541     3.2901989158    -0.9088822173
 F      3.7090798722     3.0922298590    -0.0166381743
          30
Energy: -121.59307888710137 Kcal/mole
 H      0.9565702307     3.2167509644    -0.2019729799
 F      0.8852969026     3.4876565147    -1.0751392273
 H      1.8735687209     2.0647118576    -4.2768050540
 F      2.5775026122     2.6368847207    -4.4109105774
 H      0.1402867333    -1.0442627871    -0.2243957382
 F      0.0968841451    -1.8053528814     0.2852581481
 H      4.7143968528    -1.0880915032    -0.0723293135
 F      4.1642175939    -1.2753821025    -0.7816346177
 H     -0.1272417986     1.6328367811    -3.4640700139
 F      0.5351884647     1.1589243302    -3.8853563004
 H      2.4737435808    -0.1435970122     1.7726204473
 F      2.7762125169     0.6147283894     1.3550750869
 H      5.0606322960     2.4503751467     0.6893981141
 F      5.7856925295     2.0067360405     1.0334344511
 H      1.3465116395     0.4633184980    -1.3832840671
 F      0.5389230520     0.3999828147    -0.9535419764
 H      1.0925024637    -1.7431220659     1.6230646322
 F      1.7059299965    -1.5097084583     2.2634658735
 H      1.7054133646     1.9277234474     1.3609181192
 F      1.0345975644     2.5505198301     1.3059651589
 H      3.5555686162     3.2346318789    -3.1958569929
 F      4.0660512710     3.5670743386    -2.5104531191
 H     -0.4427367684     3.0156954467    -1.9592060239
 F     -1.0323106987     2.6687226844    -2.5698626237
 H      5.7555023623     0.3538938135     1.1911168132
 F      5.6740633914    -0.5587952936     1.1556867712
 H      3.3995687829    -0.0623532952    -1.5896188994
 F      2.8845432991     0.6081329383    -1.9447047506
 H      3.7697412844     3.2946932887    -0.9089419616
 F      3.7098308773     3.0919914429    -0.0166350050
          30
Energy: -121.59039114178786 Kcal/mole
 H      0.9559721601     3.2155279548    -0.2080971419
 F      0.8776034876     3.4889285004    -1.0798766397
 H      1.8673279819     2.0697393325    -4.2889438620
 F      2.5778336689     2.6366180248    -4.4102666417
 H      0.1396275024    -1.0427182889    -0.2221372239
 F      0.0969191157    -1.8054348134     0.2851383392
 H      4.7145888842    -1.0846947777    -0.0733845814
 F      4.1642074070    -1.2755622909    -0.7815786381
 H     -0.1306125085     1.6288374418    -3.4649062518
 F      0.5353672730     1.1591364859    -3.8853119400
 H      2.4691759542    -0.1438731527     1.7687650071
 F      2.7764548190     0.6147430380     1.3552796091
 H      5.0567217068     2.4504726341     0.6989878720
 F      5.7834857993     2.0058997870     1.0381897846
 H      1.3408799091     0.4655342671    -1.3933713363
 F      0.5392218023     0.3998652733    -0.9530068701
 H      1.0918875544    -1.7466428961     1.6249503411
 F      1.7059626160    -1.5095216864     2.2633658410
 H      1.7017573452     1.9237520383     1.3602550553
 F      1.0347915078     2.5507305042     1.3060003329
 H      3.5547815189     3.2211071494    -3.1885286013
 F      4.0660930247     3.5677917942    -2.5108418734
 H     -0.4528235579     2.9927919830    -1.9534583306
 F     -1.0418417749     2.6323790082    -2.5568230856
 H      5.7500154157     0.3542070281     1.1949888436
 F      5.6743544613    -0.5588119089     1.1554813690
 H      3.4062304822    -0.0536328132    -1.5830572690
 F      2.8841899113     0.6076703369    -1.9450528299
 H      3.7878715158     3.2884863732    -0.9089179872
 F      3.7088691104     3.0923207055    -0.0166362768
          30
Energy: -121.60240029975806 Kcal/mole
 H      0.9487341102     3.2061300984    -0.2104821767
 F      0.8779874494     3.4894270349    -1.0797501191
 H      1.8748280992     2.0626290606    -4.2791252756
 F      2.5774358050     2.6369952083    -4.4107874950
 H      0.1390315629    -1.0539468178    -0.2127414614
 F      0.0970827919    -1.8130271627     0.3000219641
 H      4.7213550919    -1.0860149594    -0.0783408105
 F      4.1638484754    -1.2754922583    -0.7813157216
 H     -0.1286015308     1.6293579137    -3.4623158979
 F      0.5352605953     1.1591088761    -3.8854493522
 H      2.4701871771    -0.1474751050     1.7628455948
 F      2.7764011759     0.6149341133     1.3555936202
 H      5.0557127628     2.4386577813     0.6861390652
 F      5.7835393215     2.0065265377     1.0388713841
 H      1.3427395365     0.4687418241    -1.3894730614
 F      0.5391231534     0.3996951198    -0.9532136646
 H      1.0868925647    -1.7457318448     1.6294544995
 F      1.7062275887    -1.5095700156     2.2631269058
 H      1.7004826005     1.9225861012     1.3623792325
 F      1.0348591300     2.5507923545     1.3058876502
 H      3.5537333878     3.2245404325    -3.1894834380
 F      4.0661486256     3.5676096665    -2.5107912215
 H     -0.4622658496     3.0184605837    -1.9658537343
 F     -1.0525871368     2.6555053550    -2.5664145387
 H      5.7538244116     0.3536167446     1.2007025945
 F      5.6741524028    -0.5587805957     1.1551782677
 H      3.3988245847    -0.0607798362    -1.5855969108
 F      2.8845827771     0.6080494699    -1.9449181078
 H      3.7764006048     3.2938895142    -0.9086508395
 F      3.7094776157     3.0920340813    -0.0166504484
          30
Energy: -121.60050785022514 Kcal/mole
 H      0.9620294537     3.2082133234    -0.2109951659
 F      0.8772821621     3.4893165247    -1.0797229062
 H      1.8756623074     2.0618366690    -4.2781394991
 F      2.5773915522     2.6370372429    -4.4108397882
 H      0.1313413728    -1.0502041592    -0.2077291580
 F      0.0974907387    -1.8132257021     0.2997560730
 H      4.7178735768    -1.0821138507    -0.0766538330
 F      4.1640331617    -1.2756992031    -0.7814052119
 H     -0.1292564228     1.6278770119    -3.4617013039
 F      0.5352953358     1.1591874345    -3.8854819550
 H      2.4589431797    -0.1395640156     1.7689095005
 F      2.7769976440     0.6145144483     1.3552719440
 H      5.0542537766     2.4446726485     0.6967433638
 F      5.7836167173     2.0062074629     1.0383088505
 H      1.3419565463     0.4645249480    -1.3915553472
 F      0.5391646892     0.3999188153    -0.9531032042
 H      1.0886428076    -1.7465851101     1.6280666096
 F      1.7061347423    -1.5095247518     2.2632005301
 H      1.7060220849     1.9282253766     1.3591396420
 F      1.0345652732     2.5504932039     1.3060595030
 H      3.5530469257     3.2334246590    -3.1933826131
 F      4.0661850408     3.5671383788    -2.5105843793
 H     -0.4643374394     3.0054054675    -1.9540622685
 F     -1.0526895206     2.6476116911    -2.5596317873
 H      5.7600929170     0.3533498878     1.1941247126
 F      5.6738198731    -0.5587664396     1.1555272091
 H      3.4031514910    -0.0557966653    -1.5825908966
 F      2.8843532447     0.6077851242    -1.9450775699
 H      3.7797806913     3.2913213336    -0.9089677167
 F      3.7092983100     3.0921703174    -0.0166336387
          30
Energy: -121.60526159314264 Kcal/mole
 H      0.9514749492     3.2099296702    -0.2094808545
 F      0.8778420542     3.4892254764    -1.0798032370
 H      1.8764345084     2.0604179919    -4.2802331605
 F      2.5773505887     2.6371125004    -4.4107287243
 H      0.1353276926    -1.0553707364    -0.2151303718
 F      0.0972792737    -1.8129516271     0.3001486903
 H      4.7160924880    -1.0883562170    -0.0735779953
 F      4.1641276443    -1.2753680600    -0.7815683780
 H     -0.1261604729     1.6269771851    -3.4559058509
 F      0.5351311028     1.1592351683    -3.8857893904
 H      2.4645979257    -0.1402103962     1.7720255782
 F      2.7766976728     0.6145487373     1.3551066433
 H      5.0563329409     2.4443257706     0.6919013194
 F      5.7835064225     2.0062258639     1.0385657098
 H      1.3401039169     0.4650964869    -1.3948457206
 F      0.5392629669     0.3998884965    -0.9529286574
 H      1.0767787147    -1.7355782565     1.6338718698
 F      1.6909449781    -1.4992695079     2.2725008515
 H      1.7075341339     1.9295743068     1.3556657295
 F      1.0344850625     2.5504216463     1.3062437860
 H      3.5527789625     3.2303137543    -3.1916509655
 F      4.0661992557     3.5673034051    -2.5106762392
 H     -0.4641074670     3.0100007841    -1.9570268403
 F     -1.0527017201     2.6473679201    -2.5594745237
 H      5.7573229562     0.3537283772     1.1911440376
 F      5.6739668131    -0.5587865176     1.1556853270
 H      3.4011790674    -0.0569724327    -1.5819286246
 F      2.8844578772     0.6078474960    -1.9451127019
 H      3.7835202703     3.2899251239    -0.9089745444
 F      3.7090999339     3.0922443831    -0.0166332766
          30
Energy: -121.59758932701072 Kcal/mole
 H      0.9465022856     3.2087453549    -0.2094560144
 F      0.8781058425     3.4892883016    -1.0798045547
 H      1.8784069175     2.0578286345    -4.2811280196
 F      2.5772459570     2.6372498598    -4.4106812541
 H      0.1346875470    -1.0504170786    -0.2078144193
 F      0.0973132319    -1.8132144072     0.2997605959
 H      4.7321783551    -1.0802516763    -0.0747702864
 F      4.1808009931    -1.2714380147    -0.7821031562
 H     -0.1310332686     1.6279366272    -3.4645677336
 F      0.5353895934     1.1591842721    -3.8853298976
 H      2.4618792952    -0.1375670833     1.7747481875
 F      2.7768418899     0.6144085156     1.3549622152
 H      5.0552747212     2.4403686465     0.6891571466
 F      5.7835625586     2.0064357802     1.0387112818
 H      1.3406850383     0.4662294991    -1.3936217131
 F      0.5392321397     0.3998283928    -0.9529935882
 H      1.0782487758    -1.7473532937     1.6369390291
 F      1.6908669947    -1.4986448694     2.2723381458
 H      1.7091044295     1.9312864846     1.3557319112
 F      1.0344017619     2.5503308192     1.3062402752
 H      3.5530611016     3.2428985696    -3.1976885837
 F      4.0673340756     3.5753289575    -2.5151181877
 H     -0.4629932327     3.0087715305    -1.9573780383
 F     -1.0527608276     2.6474331292    -2.5594558934
 H      5.7525969763     0.3540490299     1.1935806503
 F      5.6742175154    -0.5588035275     1.1555560704
 H      3.4124800541    -0.0667215611    -1.5836313766
 F      2.8935333889     0.6009977378    -1.9382216987
 H      3.7834320851     3.2940270510    -0.9080627741
 F      3.7091046120     3.0920267853    -0.0166816439
          30
Energy: -121.59669455591462 Kcal/mole
 H      0.9493315741     3.2180895349    -0.2067285711
 F      0.8779557553     3.4887926145    -1.0799492392
 H      1.8759972137     2.0646463904    -4.2700690768
 F      2.5742712043     2.6456648304    -4.3954485267
 H      0.1488880042    -1.0609327260    -0.2318500025
 F      0.1129213598    -1.8221156621     0.2782440459
 H      4.7021071256    -1.0929283016    -0.0608561936
 F      4.1478241463    -1.2836900752    -0.7660294522
 H     -0.1348675254     1.6259254899    -3.4684423354
 F      0.5355929918     1.1592909583    -3.8851243589
 H      2.4495646364    -0.1397367203     1.7731778710
 F      2.7664532200     0.6140145451     1.3580517992
 H      5.0587237575     2.4501178813     0.6942742868
 F      5.7833795952     2.0059186059     1.0384398294
 H      1.3452481255     0.4642003650    -1.3855195117
 F      0.5389900785     0.3999360337    -0.9534233913
 H      1.0893931783    -1.7505717209     1.6276371439
 F      1.6902758099    -1.4984741392     2.2728315893
 H      1.7040518625     1.9258835486     1.3564440520
 F      1.0346697889     2.5506174325     1.3062024978
 H      3.5516838837     3.2386097918    -3.1945388825
 F      4.0674071338     3.5755564673    -2.5152852721
 H     -0.4636816977     2.9981437085    -1.9504663064
 F     -1.0527243062     2.6479969106    -2.5598225448
 H      5.7476463921     0.3545154245     1.1922205243
 F      5.6744801325    -0.5588282686     1.1556282219
 H      3.4078677349    -0.0630987640    -1.5703713693
 F      2.8937780618     0.6008055568    -1.9389251115
 H      3.7801497779     3.3033586338    -0.9061618582
 F      3.7092787308     3.0915317664    -0.0167824831
          30
Energy: -121.59807296679479 Kcal/mole
 H      0.9534498142     3.2120987553    -0.2089572253
 F      0.8777372922     3.4891104115    -1.0798310143
 H      1.8800626867     2.0673200675    -4.2728426230
 F      2.5714265995     2.6571057021    -4.3955530353
 H      0.1540243053    -1.0635916674    -0.2260248284
 F      0.1218902752    -1.8288866078     0.2781379017
 H      4.7046719743    -1.0863131689    -0.0647104128
 F      4.1476880870    -1.2840409927    -0.7658249948
 H     -0.1301135249     1.6216531587    -3.4562479504
 F      0.5353408031     1.1595175956    -3.8857712428
 H      2.4544108943    -0.1291901983     1.7902314089
 F      2.7740207682     0.6322348928     1.3915205372
 H      5.0532969116     2.4463794850     0.7010116482
 F      5.7836674768     2.0061169191     1.0380824279
 H      1.3364297621     0.4701211697    -1.4006759228
 F      0.5394578723     0.3996219487    -0.9526193787
 H      1.0863065044    -1.7458326972     1.6286871439
 F      1.6904395509    -1.4987255335     2.2727758892
 H      1.7008164506     1.9230078810     1.3631279944
 F      1.0348414201     2.5507699800     1.3058479301
 H      3.5457135613     3.2391442174    -3.1902287682
 F      4.0677238456     3.5755281173    -2.5155139137
 H     -0.4617742492     3.0023291968    -1.9547493545
 F     -1.0528254919     2.6477748801    -2.5595953390
 H      5.7494887195     0.3542001805     1.1961345797
 F      5.6743824013    -0.5588115457     1.1554205903
 H      3.4028869358    -0.0683551656    -1.5729771094
 F      2.8940422817     0.6010843968    -1.9387868830
 H      3.7800752920     3.3017849909    -0.9065410398
 F      3.7092826821     3.0916152445    -0.0167623683
          30
Energy: -121.58864975479219 Kcal/mole
 H      0.9320050554     3.2213339986    -0.2071014752
 F      0.8482487029     3.5044343658    -1.0752766047
 H      1.8747168382     2.0722932789    -4.2794764415
 F      2.5717101844     2.6568418848    -4.3952011265
 H      0.1544741818    -1.0638174635    -0.2263385346
 F      0.1218664103    -1.8288746298     0.2781545431
 H      4.7060863764    -1.0871867624    -0.0655903379
 F      4.1476130563    -1.2839946506    -0.7657783168
 H     -0.1230974041     1.6313620418    -3.4559999888
 F      0.5349686141     1.1590025617    -3.8857843966
 H      2.4548437242    -0.1281666643     1.7925244551
 F      2.7739978076     0.6321805967     1.3913988964
 H      5.0432709683     2.4372925943     0.7113192129
 F      5.7841993299     2.0065989577     1.0375356354
 H      1.3390919803     0.4625185444    -1.3970450419
 F      0.5393166478     0.4000252504    -0.9528119885
 H      1.0829034269    -1.7503882599     1.6336736314
 F      1.6906200763    -1.4984838714     2.2725113676
 H      1.7083027509     1.9309386444     1.3618975628
 F      1.0344442891     2.5503492714     1.3059132017
 H      3.5756729925     3.2336946431    -3.1894143866
 F      4.0914399277     3.5666050907    -2.5082065605
 H     -0.4654684619     3.0055154981    -1.9530304618
 F     -1.0526295225     2.6476058542    -2.5596865223
 H      5.7619799563     0.3532885721     1.1911896435
 F      5.6737197700    -0.5587631869     1.1556829078
 H      3.4059051676    -0.0689342392    -1.5782894275
 F      2.8938821715     0.6011151153    -1.9385050768
 H      3.7942230396     3.2972470140    -0.9063566573
 F      3.7085321768     3.0918559737    -0.0167721494
          30
Energy: -121.59934744913711 Kcal/mole
 H      0.9575320192     3.2184384907    -0.2138401267
 F      0.8789969092     3.4947495711    -1.0846865100
 H      1.8732031544     2.0764203443    -4.2683933068
 F      2.5717904818     2.6566229535    -4.3957890612
 H      0.1616238385    -1.0660172489    -0.2291457397
 F      0.1214871375    -1.8287579363     0.2783034588
 H      4.7052580148    -1.0875918184    -0.0648168693
 F      4.1476569989    -1.2839731633    -0.7658193475
 H     -0.1306529645     1.6235804970    -3.4591727680
 F      0.5353694191     1.1594153547    -3.8856160880
 H      2.4581734275    -0.1264266854     1.7984079473
 F      2.7738211745     0.6320882948     1.3910867908
 H      5.0520663561     2.4401997884     0.6957123548
 F      5.7837327549     2.0064447378     1.0383635432
 H      1.3489627761     0.4768979953    -1.3763848249
 F      0.5387930249     0.3992624537    -0.9539079653
 H      1.0982070746    -1.7493529650     1.6190767879
 F      1.6898082531    -1.4985387914     2.2732856964