          6
Energy: -0.5969704647581326 Kcal/mole
 Xe     5.9474892769    -5.7749609303    -9.5688900949
 Xe     7.0862073638    -2.9422799723    -4.0417352612
 Xe     7.8319352864     2.9776015880    -1.8636992315
 Xe    -2.7956892108    -5.4611433615    -5.9347908184
 Xe    -6.6027677550    -5.4851898427    -4.1950603850
 Xe    -6.9039024536    -5.1794272373    -0.2966803573
          6
Energy: -1.495131501278695 Kcal/mole
 Xe     7.7936419252    -1.2382939854    -3.9790091856
 Xe     2.4844706844     0.5608694693     8.4529557225
 Xe     9.7589590468     3.8804437852    -5.3159069367
 Xe     5.1254240974     1.6260941434    -6.2882402344
 Xe    -9.5937878540     1.8627065170    -6.0046561555
 Xe     3.9923612304     2.5266806929    -1.9152794931
          6
Energy: -1.5033889240654228 Kcal/mole
 Xe    -4.0415348912     3.1454019353    -0.9276054726
 Xe    -5.0480348707    -0.4190665111    -3.6706864789
 Xe     1.3938406834    -6.7057027189    -9.9375472751
 Xe    -1.1972861651     0.0915239119    -1.4810220840
 Xe    -5.1748228729     7.6609629022     1.5507465510
 Xe     7.1011053764    -4.9419669860     9.0129653159
          6
Energy: -1.4072373500546471 Kcal/mole
 Xe     1.9038915964    -1.8187515121     5.1560301781
 Xe    -1.8689423520    -9.0996791061     9.4804969104
 Xe     5.1881668432     0.4244215948     6.3473445281
 Xe    -3.6955532178    -0.0600759348     1.6427496324
 Xe     8.2920015864     2.7936545149     8.9291339435
 Xe     2.7499814659    -6.1866877618     6.2869877263
          6
Energy: -3.9083117583917 Kcal/mole
 Xe    -4.0151462633     9.0134795031     1.4804253408
 Xe    -0.7464986537     1.9529677249     5.7216111276
 Xe     0.3764842115     6.7210011266     0.5107205470
 Xe    -0.2911313834     7.0312871557     7.6305431381
 Xe    -2.6109689672     5.6563275742     3.9037789146
 Xe    -0.2474426541     9.8866837015     3.9381762405
          6
Energy: -4.073578864976203 Kcal/mole
 Xe     0.5484130270     6.5914109894    -1.8413397122
 Xe    -0.2096599279     2.6350770268    -2.3369634104
 Xe     5.1629651864     7.4851457616     2.8663448615
 Xe     0.9622970969     8.5512353114     1.6290597469
 Xe    -2.3196924914     4.8772103206     1.1728802040
 Xe     2.6025975371     4.1436670554     1.2048653608
          6
Energy: -5.070494743624962 Kcal/mole
 Xe    -1.5781535197     2.2243577277     2.6407892808
 Xe    -2.5992547990    -0.3306024171    -0.7414872888
 Xe     0.6001460198    -3.2129636799    -0.7883825965
 Xe     1.9595770509    -0.3481445604     4.3770207073
 Xe     1.5680953705     0.9326391154     0.0446132489
 Xe    -1.6968483856    -2.1143013144     3.0819585742
          6
Energy: -4.695569187158253 Kcal/mole
 Xe    -1.2397339253     1.2947896877     3.9064676016
 Xe    -1.6689711667    -2.7426592332     2.9010208071
 Xe     3.4739259263     0.8633402575    -1.4509473408
 Xe     1.6150917534     3.8082026601     1.6728787064
 Xe    -0.8303661542     0.6380654481    -0.1739069390
 Xe     2.8571446169    -0.5812885849     3.0604192371
          6
Energy: -5.144841354691432 Kcal/mole
 Xe     3.4556459002    -0.4557759011     5.1891230264
 Xe     1.8984114455    -4.0857683445     2.6316734264
 Xe     6.1861135815     0.5686783784    -1.2972740756
 Xe     5.8219786142     2.2883709932     2.5905024327
 Xe     2.3365125822     0.1064178607     0.9527927853
 Xe     5.7696157684    -2.3216809623     1.7989413931
          6
Energy: -5.326050550230798 Kcal/mole
 Xe     3.4762034226    -0.4267911631     5.1753043526
 Xe     1.9807966841    -3.8439581020     2.8123966187
 Xe     5.9684901327     0.4298287882    -1.4801054747
 Xe     5.9169911297     2.1347393128     2.5769348953
 Xe     2.3365125822     0.1064178607     0.9527927853
 Xe     5.9773452209    -2.2350139035     2.0082676434
