          5
Energy: -0.18197309980246723 Kcal/mole
 He    -5.0830775541     0.9536527829     1.3110284692
 He    -6.0084779713    -0.2499478671    -1.1353314502
 He    -6.8839249317    -1.2930121707     1.4024790005
 He    -3.3159808559     0.6628787879    -0.9184067786
 He    -4.1621523003    -1.6502928977     0.5673192123
