          5
Energy: -0.00295572734960681 Kcal/mole
 He    -1.6183663623    -3.2855573886     0.8802794977
 He    -2.1037086576    -0.5611467994     5.1543133492
 He    -2.1842980526     3.9401940444    -1.8497435347
 He    -2.1049224502    -5.0639186560    -5.1471891005
 He     2.7035001384     1.4383199977     5.9824377488
          5
Energy: -0.0016218579193692097 Kcal/mole
 He     5.4257994433     3.3182430478    -1.7267661405
 He     2.6950682323     5.2587774205     6.4647710645
 He    -4.0047953117    -1.0075805972    -2.2939291818
 He    -2.6486413294    -7.3800920311     3.6372596746
 He    -2.3207138050    -1.1714141405     2.6526101395
          5
Energy: -0.004328876650523634 Kcal/mole
 He     0.1721577731    -4.5432254010     3.7233991275
 He    -1.4195008577     5.2573993055    -7.1476232212
 He     4.4170931284    -2.6166734284    -2.9393693171
 He    -5.4126735331    -1.7526454373     3.7125676047
 He     0.2964601761    -0.4376537034     2.3128497652
          5
Energy: -8.668840485632907E-4 Kcal/mole
 He     2.4710760448     6.4730822389    -4.5037083630
 He    -3.8643092044     7.1959450040     1.7032023677
 He    -5.8018909740    -1.9998158132    -7.1438184861
 He    -3.9576584044    -4.2421613504     4.9227888126
 He     3.6662417081     4.7658738368     0.7192385007
          5
Energy: -0.0013722720311171834 Kcal/mole
 He    -0.2746121594    -6.8410197082     2.2890625238
 He    -4.6425392551    -4.9419210413    -0.5014264275
 He    -0.1525292694     2.8768594633     5.1383419171
 He    -2.1557233371    -0.7045455776    -5.0863031977
 He     4.1843833713    -5.1207405017    -3.2479087175
          5
Energy: -0.007691089514666211 Kcal/mole
 He     1.2381112222     2.5596058517    -2.6897664454
 He     2.6749980567     4.1187669929    -7.2294139072
 He    -2.1946729592     1.3150686314     5.5758150276
 He     3.1982818312     3.6526299871     5.2056892158
 He    -1.3992679606     4.3245940215    -6.4807791495
          5
Energy: -5.660714653996354E-4 Kcal/mole
 He    -6.9717601883    -5.3277159784    -2.5611006160
 He     4.8089526134    -6.0066080753     7.2962543625
 He     0.3164211816     0.7618015674     0.5736110311
 He     6.0555307973    -2.7226120461     1.7420402385
 He    -5.7365773805     7.3379748064    -4.5497844941
          5
Energy: -0.008217497758063783 Kcal/mole
 He    -0.2012826668    -5.4412490409     6.9197402127
 He     0.4032112011    -1.7392415352    -2.4136511293
 He    -7.0088967202     5.9620741897     2.8588089835
 He     2.7212644408     2.3490456812     6.7325604858
 He    -5.9208532858     6.8947450963    -0.5219799471
          5
Energy: -0.02854461848182002 Kcal/mole
 He     4.9541659483    -5.2572285856     2.4470445781
 He     4.7270108229    -4.7384247319     5.0616842602
 He     7.3298429007     6.6049310960    -0.6716497635
 He     0.3161581230     5.9757026625    -3.1266307624
 He     1.9319663075    -6.9918677317     4.0380689172
          5
Energy: -0.18189654519460025 Kcal/mole
 He     3.8148772454    -5.1773716563     1.8050488331
 He     3.6903120200    -4.0181256936     4.4290526609
 He     4.2738664120    -2.3690207274     2.1332415599
 He     6.2223473678    -4.2060513057     3.0745894980
 He     4.9561945926    -6.5708491881     4.0232613335
