          5
Energy: -5.498186645798517E-4 Kcal/mole
 He     6.4922117377     3.5280560061    -5.3023837378
 He    -6.0222018219     7.1368038317    -5.7981217017
 He    -3.6396078199     4.5593529543    -0.4480564033
 He     7.1028789183    -0.0235852359     0.7947961016
 He    -4.2425808699    -5.4169503003    -4.8314833453
          5
Energy: -3.4720347098834444E-4 Kcal/mole
 He     5.5959608741    -4.7572209349    -0.1031431485
 He    -4.7239238846    -6.3282119661    -0.8806357296
 He     6.5632634212     7.0533632831    -2.3147601618
 He     1.1658572485     2.5609961967     6.7873314351
 He     1.6813582576     2.6342284433    -3.8539216455
          5
Energy: -0.002651308998877059 Kcal/mole
 He    -6.1164828384     0.8928088069     6.9333999330
 He    -3.3498849407    -4.5534368039     2.6820209716
 He     0.3844475886    -2.7706665667    -6.9808571856
 He    -2.7198259532     2.7862627846     2.8833911869
 He    -3.0811615575    -1.3131546583    -1.6133570832
          5
Energy: -0.005505190617780417 Kcal/mole
 He    -1.8207102365    -4.9380180730     1.5382109420
 He    -7.1174940316    -7.3160479235    -2.0140233770
 He     0.2988419534     3.9884868249    -6.6227794610
 He     5.0858241613    -6.0863083742    -5.3262177008
 He     5.4750310722    -3.6935461079    -2.1555923392
          5
Energy: -0.020995480003004538 Kcal/mole
 He     5.6728069774     3.4036179936    -6.3469668029
 He    -4.6353394506     3.5864515043    -3.9872701279
 He     5.5876797712     0.9771166716    -2.0970810739
 He    -6.5634553045     1.3660184964    -4.5513375266
 He     5.9661264522    -2.1479709329     3.3066447074
          5
Energy: -0.03905499872557235 Kcal/mole
 He    -3.4775023390    -0.5308539018    -3.9640902880
 He    -3.0650514260    -3.1152280967     6.7118837014
 He    -4.2917260118    -4.9269275145     5.0343452962
 He     0.1727874059     3.0472442871     2.3444659329
 He    -2.9024386223     1.5165195049    -1.9048183313
          5
Energy: -7.119864627708055E-4 Kcal/mole
 He    -4.4538115119    -6.1264264814    -1.2057980829
 He    -6.3340935909     3.8536176303     7.1302414375
 He     7.0082340621    -5.9347271361    -6.6929388049
 He     0.9040792391     1.7436891133    -3.4467511495
 He     2.4224853903     6.3478318362    -0.4360605056
          5
Energy: -7.803374891336444E-4 Kcal/mole
 He     2.4742745102    -0.7466847800     3.8306206462
 He     4.9431378867     2.2088381173    -6.4890145125
 He    -1.5668636362     1.0198812281    -1.1230272598
 He    -2.8565743034    -5.1141273289     5.0638956008
 He     7.0668990574    -4.1698469932    -0.9567307930
          5
Energy: -0.005324295251326276 Kcal/mole
 He     2.1528254964     4.9513311214     0.9876771580
 He     2.9416942116    -7.4163946879     0.8336204049
 He     3.8882192583    -0.3561257447     3.6961810708
 He    -0.1826510683     3.4331821423    -2.2227105592
 He    -1.8417666098    -0.5871774732     2.3971566191
          5
Energy: -0.18203142758495056 Kcal/mole
 He     1.7303500831     1.6724370429     3.1990703291
 He     2.1830315550    -1.1652664129     3.3663943455
 He     1.5101149574    -2.3604294896     0.8467040493
 He     2.7183408379     0.2379189219     0.9177661663
 He     0.0117699143    -0.1223055564     1.7993165450
