          5
Energy: -0.1819666546695596 Kcal/mole
 He     3.1931517513     2.1236117690     3.3046911595
 He     3.9033198948     0.2412652367     1.2581458596
 He     1.5979559791     1.9170787944     0.9245695631
 He     3.2975993874     1.3039506102    -1.3079637294
 He     4.2237746731     3.0484713111     0.7888428760
