          6
Energy: -0.006687347295345744 Kcal/mole
 Xe   -17.1758148676   -15.7306812357     2.7837171916
 Xe     3.3729327446    -4.4893817647   -14.5665136670
 Xe    21.1665438948    -3.1323604364   -15.6502731958
 Xe     8.6301212061     3.3273839884   -18.4811360120
 Xe    18.5283885790    23.7740274859   -11.8337492796
 Xe     6.8055061431    14.8861445628    22.4162543808
          6
Energy: -0.21926808855932317 Kcal/mole
 Xe    20.9739832950    -7.2763811554    16.0395289294
 Xe    20.4046080116   -11.6847757908    19.1168738534
 Xe   -23.9065965802    26.1960117199   -24.0557697255
 Xe     2.3036677094    23.0168995676    15.8309958775
 Xe     2.5477020310   -22.7616919749   -20.3600582252
 Xe    19.6914782661    -3.7518520456   -17.7727494590
          6
Energy: -6.50546856105589E-4 Kcal/mole
 Xe    23.3337452978   -18.8450931517    17.0468084720
 Xe     6.9866165223     2.2495669775   -10.0808705300
 Xe   -14.6634933167   -20.8693106831     0.6522341533
 Xe     6.8156442670     9.1125975655    26.1955770073
 Xe    21.9135797445    13.5528658413   -18.9821841420
 Xe    23.4083575338    20.0431449954    -5.3163813578
          6
Energy: -1.8232002851781666E-4 Kcal/mole
 Xe     8.4196133242   -26.2450007313   -15.3744026859
 Xe     2.4713978015    19.9550203747     5.0007318707
 Xe   -18.3320456187   -20.0995358925    -4.9412338376
 Xe   -12.4179714378   -22.9965817231    14.9125211931
 Xe    18.8827954389     3.8267608490    19.4068013450
 Xe    -0.9869358868    16.3038202470   -15.6702063462
          6
Energy: -0.4323781197245182 Kcal/mole
 Xe    11.6916192282   -12.1028283678    26.1328904352
 Xe    13.6465337310    -4.0189459575     7.7675791589
 Xe   -17.9202454583    -1.8877981857    21.3140486397
 Xe     4.4638771657   -16.2575531024    -4.9243094407
 Xe    11.9748285787   -14.1565661008    22.2834455299
 Xe     1.3161201320     4.3727163908     5.9658897949
          6
Energy: -0.3882516691122666 Kcal/mole
 Xe     2.8144896518   -22.7108741013    23.1550876653
 Xe    25.6722761612    14.1989964348    13.8273973210
 Xe   -11.1500988062    12.5707979945    24.4292450810
 Xe     2.4172719128    19.6856397566    -6.3981894080
 Xe     1.0988127743   -18.8641266306    23.0869287541
 Xe    19.2499686334    24.5254655460    13.8293368042
          6
Energy: -0.43144230852879994 Kcal/mole
 Xe   -24.8347218012     4.9134769887     6.1919694113
 Xe     2.0344095193    22.6896869314    25.0712928180
 Xe    20.5158685185     4.9042017992     5.0961327808
 Xe   -18.0966010790    23.5611657981     5.1046237644
 Xe     1.8475958003   -22.4764963048     1.8112925083
 Xe     0.8270111210    18.4607468468    24.2998993997
          6
Energy: -1.5833466659317603 Kcal/mole
 Xe   -20.7931099519    -3.7715430334     3.5111433835
 Xe    13.7114428162     7.5598967003    12.4106839233
 Xe    18.4915567933   -13.3967796199     4.4615260045
 Xe     9.3459217013     6.5131711839    11.4143856143
 Xe    17.9716112121   -15.7462213283     8.7854107566
 Xe    10.4658157160    10.7045745376    11.6130453570
          6
Energy: -1.6969355911841433 Kcal/mole
 Xe   -20.2808430174     9.9994529611     0.1789810937
 Xe     9.8759626469     3.2046648978    10.6937018949
 Xe    25.3863221263   -11.8342019542     2.8516257099
 Xe    10.3218775990    -1.0134651467    11.7236066182
 Xe    23.8529410275    -7.8427757983     2.6791803618
 Xe    14.0326996414     1.4783092396    10.9782913580
          6
Energy: -3.0330428926761264 Kcal/mole
 Xe     8.8247680552     1.0538852679     6.8629743616
 Xe    10.0337458810     3.3150847050    10.4584525431
 Xe    25.5979749509   -10.2759132692     1.7634257064
 Xe    10.1288416496    -1.0856737233    10.5022963137
 Xe    22.5568439702    -7.5941877838     3.5131578871
 Xe    13.0686061906     1.1397048997     8.0845880377
