          6
Energy: -3.0303905575925087 Kcal/mole
 Xe   -18.7244079182    -0.5346190738   -12.6714945266
 Xe   -21.8203643411     0.8217874594    22.7222110907
 Xe   -15.9810142567     2.7908262797   -13.5848357010
 Xe   -18.3207806271     2.8128404471    -9.8479880071
 Xe   -24.7591459008     1.9722064389    19.6304292237
 Xe   -20.3561083698     3.4358973043   -13.7332281744
