          6
Energy: -0.005996531464156198 Kcal/mole
 Xe   -17.0018652067    10.3585695367   -16.0537562158
 Xe     4.0337274308   -14.2123974583    -2.6363387471
 Xe    10.2110604302    12.8013768127    10.9578001034
 Xe    12.4626047747   -11.4102618587     3.3156751183
 Xe     3.5787648674    13.8891689543    -9.0138919389
 Xe    -0.1327004759    -0.9737192212    -2.0162207653
