          5
Energy: -2.885680953586196 Kcal/mole
 Kr     1.4235976020     3.2575762332     2.4260637554
 Kr     5.2981536496     2.0276936253     2.4633142065
 Kr     3.9588815585     4.4337478171    -0.5241128021
 Kr     7.6711029744     4.9956583186     1.0329020147
 Kr     4.3793628690     5.9234971998     3.2377620796
