          5
Energy: -0.3880610913102709 Kcal/mole
 Kr     0.2219636252     3.1980523116    -2.7600440027
 Kr     1.3093009732     3.4270254482    -6.7227269655
 Kr     4.6192443694     6.0752020040     0.4100742686
 Kr    -2.3882581393    -1.7308864272     5.0644058936
 Kr     7.3431822635    -2.0203089249     5.9508999125
          5
Energy: -1.3361211740287957 Kcal/mole
 Kr    -6.0685070122     1.3110893284     0.7732953600
 Kr    -5.6011275279    -1.8842848752    -1.8454281936
 Kr    -3.9662584137     0.2505366707     4.9400177518
 Kr    -2.1404130503    -0.8063870542     0.5838861376
 Kr     3.5635919305    -0.2896952687     0.3950033087
          5
Energy: -0.637967368370542 Kcal/mole
 Kr     2.0888746012     7.8236638887    -4.5718495353
 Kr     4.6499766254    -3.1150720748     4.4978338544
 Kr     2.6008132299    -3.4243505038    -5.5563564477
 Kr     4.3939622127    -6.6590306433     6.5794605412
 Kr    -4.782727E-40    -4.3441975209     5.4214950620
          5
Energy: -0.8851000968815381 Kcal/mole
 Kr    -8.0112189034     0.7595965614    -2.0730167823
 Kr    -6.7116222913     1.2518520552    -7.6220432418
 Kr     3.2606134149    -2.7952155359     1.6798558233
 Kr    -0.4188061214    -2.0175211325     2.8554220186
 Kr     3.5236513101    -0.8932184635     5.0374288682
          5
Energy: -1.4656584172755682 Kcal/mole
 Kr     5.8524097612     1.0028225998     0.9085068388
 Kr     0.4458681653    -3.9506860520    -7.0867046578
 Kr     3.6686914620    -2.9926311171    -2.6737993592
 Kr     3.7900845569     1.6008919461    -2.7855389319
 Kr     4.4023055632    -1.0355399039    -5.9335256830
          5
Energy: -2.298346627101853 Kcal/mole
 Kr     4.7478027617     2.5984628297     1.5884972152
 Kr     5.9447166102     6.5676600608     1.5025560411
 Kr     5.2137127233     5.7370103732    -2.5043685596
 Kr     4.8974023173     1.1529930901    -2.4887341654
 Kr     8.2052134385     2.6201255803    -0.5921073250
          5
Energy: -2.411062697597019 Kcal/mole
 Kr     1.8601057267     4.9304013911    -0.5573052814
 Kr     3.6656475758     1.8901314895    -2.1810335357
 Kr     0.6387967075     3.1258634124     3.5585203723
 Kr     5.8007748738     4.8841812415    -0.3348576252
 Kr     4.0136360853     2.0223941112     1.7641898757
          5
Energy: -2.5952616561586557 Kcal/mole
 Kr     1.2133145812     4.1605776012    -1.3351477836
 Kr     5.5984163553     5.1512175695    -1.0420545731
 Kr     2.9189221536     6.1557884582     1.9071808664
 Kr     3.0020280100     5.4273458633    -4.9596121766
 Kr     2.7799861702     7.7040925741    -1.7757429942
          5
Energy: -2.771139907387501 Kcal/mole
 Kr     2.0403358301     2.8938000017    -2.6426368019
 Kr     2.1876251639     5.5855931474    -6.1112878841
 Kr     3.9224730536     6.3742277726    -2.3794679326
 Kr    -1.0523603295     3.3140814878    -5.2014733268
 Kr    -0.2892318456     6.5614601362    -2.9693605851
          5
Energy: -2.885406418582822 Kcal/mole
 Kr     1.9959709491     2.8551618496    -2.6198834638
 Kr     2.5642349013     5.2721359149    -5.8355926577
 Kr     3.7531184119     6.4803042427    -2.1421422949
 Kr    -0.8640111560     3.1025313699    -5.4797674392
 Kr    -0.2082532098     6.2780512913    -3.0294605091
