          5
Energy: -0.4632536050877588 Kcal/mole
 Kr     2.9563524130    -1.9130757863     4.1058437596
 Kr    -4.0784925075    -1.0427668236     5.1274218740
 Kr     3.8352490782     6.4152237692    -5.5112888992
 Kr    -6.6286201782     2.6568961812    -1.6321976356
 Kr    -0.6516735266    -2.8990128460     7.3072213248
          5
Energy: -0.8689276362417815 Kcal/mole
 Kr    -1.0758486318    -5.0893638492    -1.4742808363
 Kr    -2.4936358335    -1.8307762185    -6.2446653229
 Kr     1.6668885667    -4.0539414023    -4.3497495164
 Kr     2.6478572785     0.3127103219    -4.5683221508
 Kr    -4.8727170586     1.9508317512     7.2812399492
          5
Energy: -1.3399353201315825 Kcal/mole
 Kr     6.6851370250    -4.7765881509     1.7461529725
 Kr     6.1601793804    -6.3943744098    -1.5433570569
 Kr     3.4920984926    -2.8363987928    -0.0163850277
 Kr     5.2799083131     0.8679711312    -1.0068706128
 Kr     7.0691830734     2.7607137326    -4.3569941442
          5
Energy: -2.0442797346206767 Kcal/mole
 Kr     1.2993375372     4.1877855012    -0.4274383546
 Kr    -1.8093480380     4.9091927373     2.4369260133
 Kr    -0.3207179082     8.0085813187     0.7176068219
 Kr     2.9278855319     6.8369583337     2.8482285347
 Kr     3.0238920934     1.4614090882     2.2286754531
          5
Energy: -1.9233057172895365 Kcal/mole
 Kr    -3.9669948323     6.4137059196     4.5760056668
 Kr    -2.7017327349     5.1763388436     1.0247198599
 Kr    -4.9647296581     2.3635587193     3.7654616218
 Kr    -1.6832897172     7.7726624815    -2.0110046726
 Kr    -0.2343128621     7.5404821489     3.4851091933
          5
Energy: -2.5789016399492306 Kcal/mole
 Kr    -0.1591106599     6.4493265191     3.3733699518
 Kr     2.7442889669     1.8151766098     6.9111891843
 Kr     0.7798647723     5.6400576744     7.3742192860
 Kr     2.7441933064     3.8600374672     3.6017643073
 Kr    -1.2413244809     2.8769168965     5.3670713380
          5
Energy: -2.7269042936196373 Kcal/mole
 Kr     7.5203046871    -1.9263721213     5.8287307205
 Kr     6.4566187080     2.1266110898     5.7550752426
 Kr     3.7346093203    -0.4716000355     4.0861417228
 Kr     2.4129617811     2.3180624037     6.3595532157
 Kr     4.6512728342    -0.3485839296     8.2290924608
          5
Energy: -2.720424862494614 Kcal/mole
 Kr     2.5867333518     5.9302474352     4.7727384796
 Kr     3.9304560932     2.5139777867     3.0545437314
 Kr     3.0166691150     6.2520231879     0.6341150359
 Kr     6.1344629566     3.7905467169     0.0115406182
 Kr     6.3969136710     6.2138663778     3.0935584426
          5
Energy: -2.812779189874173 Kcal/mole
 Kr     1.2549305254     3.4011245229     2.3145738459
 Kr     5.1554885214     1.9541262245     2.6875110088
 Kr     3.9548880973     4.4369300241    -0.4164312605
 Kr     7.6869284040     4.9431054065     0.9513649161
 Kr     4.3550478609     5.7523812668     3.3462256483
          5
Energy: -2.885680953586196 Kcal/mole
 Kr     1.4235976020     3.2575762332     2.4260637554
 Kr     5.2981536496     2.0276936253     2.4633142065
 Kr     3.9588815585     4.4337478171    -0.5241128021
 Kr     7.6711029744     4.9956583186     1.0329020147
 Kr     4.3793628690     5.9234971998     3.2377620796
