          5
Energy: -2.885437723836331 Kcal/mole
 Kr     0.6576966439    -6.4815960012     7.5996380631
 Kr    -5.0669343708    -6.8459843091     4.2910445957
 Kr    -1.0611765650    -7.5457909954     4.0935882025
 Kr    -2.4713285533    -4.3345651244     6.1489303715
 Kr    -3.0615169831    -8.0839635518     7.6093848101
