          5
Energy: -0.050018246064884225 Kcal/mole
 Kr     3.0448059214    -3.3215373309     5.5529365311
 Kr    -3.2847019639    -7.6174513472    -7.2530641721
 Kr    -2.7053058042     7.6683017714     7.4728689742
 Kr     1.1223923195    -0.2427207730    -0.0863716019
 Kr    -6.7711612252    -0.9157693442    -2.3479173049
          5
Energy: -0.38182256668541525 Kcal/mole
 Kr    -5.9904350128     4.4637978852    -4.6317076718
 Kr    -1.0702051739     2.8390234201     2.0919470841
 Kr    -2.7451236656    -7.0162630402     0.7624752989
 Kr     1.7794454419    -3.8575446379    -2.4128782877
 Kr     5.4255576869    -1.9362155396    -1.8390496333
          5
Energy: -0.4813802391190292 Kcal/mole
 Kr    -0.7505570683     7.7500720798     5.6710512565
 Kr     8.1282494886    -4.4759847159     0.1439245337
 Kr     4.7744363858    -7.1812964495     0.0950599592
 Kr    -2.1214390850     3.3182368476     7.0581100094
 Kr     1.2039211701     2.2032457639    -3.8238604930
          5
Energy: -0.17609806556862206 Kcal/mole
 Kr     7.5444453486     7.1398240776    -2.0783830909
 Kr     2.0292842160     6.3999481705    -6.5968239869
 Kr     4.2406628502    -3.8743470251     4.3152092954
 Kr    -3.2251215128     3.3229757457     8.1898467880
 Kr    -6.5398439504    -0.4653838040     7.9915497299
          5
Energy: -0.1291192108901541 Kcal/mole
 Kr    -5.5157528260     7.5209857895    -0.2682457821
 Kr    -0.9098915035     0.8801072622     2.2321645409
 Kr     3.1221216849     0.3812284787    -5.9245598648
 Kr     6.5205607606     4.2889887932     6.0964318345
 Kr     5.8206760535    -3.8434999808    -3.9420239368
          5
Energy: -2.0393154255230668 Kcal/mole
 Kr    -2.8617148189    -3.5754400145     3.0572566416
 Kr     1.3175938273    -5.4763650628     1.0124394331
 Kr     0.4878674519    -1.5568201403     3.0976244569
 Kr    -1.8732105860    -1.6224749972    -0.9963843625
 Kr    -0.2913721313    -6.2129522414     4.5611519286
          5
Energy: -2.117709065534416 Kcal/mole
 Kr     1.3021690632    -5.6726219169    -0.6319079557
 Kr    -2.7111707495    -4.9152050302    -0.0438165065
 Kr    -0.2800821942    -1.8461117174    -0.5713070901
 Kr    -3.9074718335    -1.1296945033    -1.8239325339
 Kr     3.8265812032    -2.1165584306    -1.6608393035
          5
Energy: -2.2398164329337096 Kcal/mole
 Kr    -7.1339217514    -0.7875179255    -3.3657340087
 Kr    -0.1472924999    -1.5918187759    -0.6795002772
 Kr    -4.5172479566     2.2004540187    -4.1259440600
 Kr    -3.4882079238    -1.7079326147    -3.6910531592
 Kr    -3.3145869985     0.9048232885    -0.5873618658
          5
Energy: -2.73426151437335 Kcal/mole
 Kr    -6.7313536175     1.7994001972    -5.0088454147
 Kr    -2.9779452421     0.2432837950    -5.2919968268
 Kr    -3.6252800328     3.7951329769    -3.7333527451
 Kr    -4.3237406222     3.3348148411    -7.7042003399
 Kr    -0.5985333694     3.2530046844    -6.7989941348
          5
Energy: -2.885656297005638 Kcal/mole
 Kr    -6.5785056711     1.7668029040    -4.9200025875
 Kr    -2.8309439850     0.2498852166    -5.2870042268
 Kr    -3.3655696092     4.0684045065    -3.9891942222
 Kr    -4.1237170837     3.1089774804    -7.8701075467
 Kr    -0.3007813749     3.2016281375    -6.4963215170
