          5
Energy: -2.885656297005638 Kcal/mole
 Kr    -6.5785056711     1.7668029040    -4.9200025875
 Kr    -2.8309439850     0.2498852166    -5.2870042268
 Kr    -3.3655696092     4.0684045065    -3.9891942222
 Kr    -4.1237170837     3.1089774804    -7.8701075467
 Kr    -0.3007813749     3.2016281375    -6.4963215170
