          2
Energy: -0.23390000010045003 Kcal/mole
 Ar    -5.4116529945     0.4652135765     2.7936361154
 Ar    -2.2887190978    -1.0193971620     4.4112064035
