          2
Energy: -1.5503445734671507E-4 Kcal/mole
 Ar     4.3895983116    -1.5263730355    -4.1286852335
 Ar    -6.5494642308     3.8568758494     3.7411340120
          2
Energy: -0.13430574389626676 Kcal/mole
 Ar     1.2859854497     1.8014425388     0.6338138240
 Ar     0.9680186510     6.1102691933     2.0698616929
          2
Energy: -1.1754356418594332E-4 Kcal/mole
 Ar     7.3877392731     2.1267884098     0.4394814435
 Ar    -6.2993897504     2.6353513667     7.0228055968
          2
Energy: -0.001058075114908968 Kcal/mole
 Ar    -4.3663909511     2.7896437921     6.1397205143
 Ar    -5.3106495072     6.9140419137    -3.5079029962
          2
Energy: -0.07582984943930478 Kcal/mole
 Ar    -2.8230029346     3.9280401177     1.4928741151
 Ar     0.4372047499     3.9678623160    -2.4160796255
          2
Energy: -0.009290396363065294 Kcal/mole
 Ar    -3.5494378282     2.0153370120    -1.9630826749
 Ar    -0.1135943524    -2.7924010387     2.3629445623
          2
Energy: -0.20150536296366145 Kcal/mole
 Ar    -2.0074553575    -0.5061557997    -1.1030079674
 Ar    -5.1778270840     1.6120689427    -2.6781420492
          2
Energy: -0.22076723665602344 Kcal/mole
 Ar     5.4441965461    -0.0721601558     6.3262742622
 Ar     6.8795125416    -3.6229870117     5.1951256426
          2
Energy: -0.21893503505453216 Kcal/mole
 Ar    -1.9302999827    -1.8427935517     6.0366106557
 Ar     1.4226437428    -2.5751479374     7.3554878909
          2
Energy: -0.23389999991107494 Kcal/mole
 Ar    -1.6807065589    -2.3906227934     5.3604474713
 Ar     1.5050008811    -2.2938333195     7.4617108446
