          2
Energy: -0.2339000000751403 Kcal/mole
 Ar    -4.6579482725     2.4084675906    -2.9403293183
 Ar    -1.1702847876     3.0453778841    -1.5247427552
