          2
Energy: -0.23389999991107494 Kcal/mole
 Ar    -1.6807065589    -2.3906227934     5.3604474713
 Ar     1.5050008811    -2.2938333195     7.4617108446
