          2
Energy: -0.017751758379426576 Kcal/mole
 Ar     0.5943035875    -0.7801282172     3.8184782787
 Ar    -2.8257041873     3.7747133840     7.0808087043
          2
Energy: -0.10989129161482392 Kcal/mole
 Ar    -6.0107325837    -5.4673013323     6.3186197174
 Ar    -2.6990449578    -6.4315300708     6.8156664452
          2
Energy: -0.0010452284535084784 Kcal/mole
 Ar     2.5595687172     3.6654347807     3.2078234556
 Ar     5.5242087966    -4.9167078292    -2.1764122951
          2
Energy: -0.0020381134495141297 Kcal/mole
 Ar     6.7878853460    -0.3966774475    -6.5491455774
 Ar     7.2363087170     5.0885310108     1.1238133773
          2
Energy: -3.1895008401613083E-4 Kcal/mole
 Ar    -0.1745633485     4.3816550588    -5.5873939647
 Ar    -3.6683065993     6.1682895034     6.6666173589
          2
Energy: -2.3212117154139408E-4 Kcal/mole
 Ar    -6.9009993937     1.7704342789    -6.2013742309
 Ar    -2.5300873681    -4.4060989754     5.0596067027
          2
Energy: -0.20331967972230938 Kcal/mole
 Ar    -0.7373687971     2.5581454738     0.4087806256
 Ar     0.1110555060     3.7281552363    -3.4429682202
          2
Energy: -0.16952293149839057 Kcal/mole
 Ar    -3.4906967279    -1.9454776474    -3.5705534713
 Ar    -2.1378231968    -0.6006353611    -7.4479275194
          2
Energy: -0.1775692114185755 Kcal/mole
 Ar    -3.6041539862    -1.0921718509     4.2820556630
 Ar    -6.5870813231    -1.6036500971     2.3852869438
          2
Energy: -0.23390000002577507 Kcal/mole
 Ar    -3.6390821413    -1.0596314055     4.7377343900
 Ar    -6.2063255374    -1.8633715527     2.0291531972
