          2
Energy: -0.23390000002577507 Kcal/mole
 Ar    -3.6390821413    -1.0596314055     4.7377343900
 Ar    -6.2063255374    -1.8633715527     2.0291531972
