          2
Energy: -0.0015491680788100278 Kcal/mole
 Ar     4.3070916709    -3.3714969013    -4.8395971696
 Ar    -4.1099351356    -0.4336925524    -0.5687682470
