          6
Energy: -5.5031651121714855 Kcal/mole
 Xe    -0.7031599816    -2.7218255583    -0.2513379305
 Xe    -2.9527134240    -6.4565209879    -0.6865873856
 Xe    -5.0777269127    -2.5962531023    -0.6097108670
 Xe    -1.0750674562    -5.4887491619     3.1463396881
 Xe    -3.1875460863    -1.6446642484     3.2321992383
 Xe    -5.4551896630    -5.3912287515     2.7714417162
