          6
Energy: -0.23958871121961317 Kcal/mole
 Xe     0.1415831814     7.0758303330     3.5607781147
 Xe    -6.8630067152     1.9701155609     9.4871102219
 Xe     1.7772320383    -4.5384112891     6.4573362225
 Xe    -5.5568636255    -3.6113354855     9.7155372466
 Xe     4.0903423465     5.1399741808     9.6808362341
 Xe    -8.8524140188    -7.5724619773    -7.7146047868
          6
Energy: -1.2246004066955087 Kcal/mole
 Xe    -4.3131808826    -1.3449379061     8.0486735089
 Xe     5.3588627012     0.7947278590     5.8881036364
 Xe     4.2374806908    -2.0910552416     8.9989996785
 Xe     0.3725326349     8.3126404738    -0.7859442035
 Xe     0.3905408743     1.8430038501     0.9697322239
 Xe     4.0462978969     5.5615478883    -0.8946682688
          6
Energy: -0.5621229838414507 Kcal/mole
 Xe    -8.1697642376     5.3131137261    -5.1321310648
 Xe    -3.6096161952    -9.1988157194    -7.4947575701
 Xe     8.5050170339    -3.9942932896     6.5657342556
 Xe    -0.6602334878    -1.9423549235    -8.9743728689
 Xe    -3.7085340349    -2.6052581239    -4.3346570491
 Xe    -8.5188669614    -4.2459116776    -3.1763295005
          6
Energy: -1.0997251343790748 Kcal/mole
 Xe     2.2557835523     4.8933154169     1.1250360431
 Xe     8.3418340524    -4.7643608251     4.8244000719
 Xe     6.1518803479     0.1933910963    -1.5966385680
 Xe    -1.6577396946    -0.1509848436    -5.9103076086
 Xe     4.5240653770     0.9378131017     2.1839680249
 Xe     6.8686901381     8.4508238170     2.0396103122
          6
Energy: -2.389858813201201 Kcal/mole
 Xe    -3.0569028157     9.6773834821     3.5619143332
 Xe     9.1140188490     8.5807824104    -7.8344218165
 Xe    -6.4516913309     4.7371420023     0.8435790435
 Xe    -7.2557279906     7.4050578952     4.0199151561
 Xe    -1.8523591707     4.9530300236     3.3525643261
 Xe     0.4154177986     7.9226609488     0.6837365925
          6
Energy: -3.4768506678342734 Kcal/mole
 Xe    -1.0191609584     0.6555129100     1.3465928785
 Xe    -3.4580145604     2.5312383987    -1.7618789189
 Xe     0.7225896249     1.6242199442    -2.5434778575
 Xe    -0.0479707233    -2.6727030645    -2.0407334803
 Xe    -4.4334201132    -0.9479684131     3.2203480743
 Xe    -2.6238403803     5.7184061827     1.7100749283
          6
Energy: -3.887206655677015 Kcal/mole
 Xe     1.5665075639    -1.2869513593    -0.7582188755
 Xe    -3.0599967166    -0.4129480775    -0.0060071602
 Xe     3.1261364968     1.1046821184    -4.2277037246
 Xe    -0.4500751776     2.8463601172     2.3284034898
 Xe    -2.7925144952     5.6147314551    -0.5923852036
 Xe    -0.7099196157     1.9075619395    -2.6650694211
          6
Energy: -4.789292908474803 Kcal/mole
 Xe     0.0745109337    -0.1559477736    -1.8457134750
 Xe    -2.1885017591     1.5060599876     1.1356469933
 Xe     4.9980194357    -0.0554747627    -1.2162741355
 Xe     2.1973734761     2.6246171479     0.6179364813
 Xe     2.7941782512     2.7487904496    -3.5838613261
 Xe    -0.7799249719     4.5946637727    -2.1977606550
          6
Energy: -5.378069920525128 Kcal/mole
 Xe    -0.5490173150     4.2027756811    -1.3776950909
 Xe    -4.5152546610     2.3077485314    -0.6119079260
 Xe    -1.1930360343     0.0961210079    -2.7566987799
 Xe    -2.6514063858    -0.8504018662     1.3374348270
 Xe     1.3070681635     0.9956685063     0.8850220022
 Xe    -1.8845401496     3.2926101919     2.6503078971
          6
Energy: -5.503457349593022 Kcal/mole
 Xe    -0.3650150804     4.2184600886    -1.3291697461
 Xe    -4.4160916514     2.6293363902    -0.6534326674
 Xe    -1.3451634602     0.1106945589    -2.5289782464
 Xe    -2.7185455627    -0.7715510402     1.5509730813
 Xe     1.3290922206     0.8002863369     0.8711736282
 Xe    -1.7328485963     3.3268422890     2.7438679410
