          14
Energy: -49.32315657076522 Kcal/mole
 H      1.1103593937     4.6039411427    -1.3652125857
 F      1.6738518204     4.8568235959    -2.0430147323
 H      0.7123857697     4.7348617696    -3.3674581964
 F      0.0739813845     4.5586697039    -4.0017177622
 H     -2.7022623406     1.4732736918    -0.6837741039
 F     -2.4002503913     1.0168882043     0.0520180333
 H     -2.2219463895     2.3104732272    -2.5566332754
 F     -3.0133596505     2.3071508572    -2.0934453954
 H     -0.7829577877     1.3141157545     0.3380668475
 F      0.0806197172     1.6132977034     0.4129871680
 H      0.0231154826     3.1743877045    -0.0621299953
 F     -0.0917764656     4.0356077635    -0.3553685507
 H     -0.4492453726     3.0733233669    -3.5437901807
 F     -0.6897762792     2.2669605419    -3.1793551694
          14
Energy: -49.33864732919203 Kcal/mole
 H      1.1215560732     4.6449668322    -1.3360222905
 F      1.6726500860     4.8923415291    -2.0259426833
 H      0.7006497442     4.7537252021    -3.3497181644
 F      0.0686391680     4.5717954699    -3.9887433627
 H     -2.7218921946     1.4542803632    -0.6947840510
 F     -2.4119360144     1.0194567580     0.0506987446
 H     -2.2311318260     2.3047793168    -2.5644001850
 F     -3.0168425359     2.3105906546    -2.0916276089
 H     -0.8018035987     1.3370821550     0.2752567014
 F      0.0726554175     1.6112914879     0.3071889866
 H      0.0273999291     3.2083931828    -0.0525963375
 F     -0.0685162392     4.0825603991    -0.3124439207
 H     -0.4642989017     3.0659826469    -3.5613430008
 F     -0.6976228312     2.2619726962    -3.1871546216
          14
Energy: -49.32788170306601 Kcal/mole
 H      1.1324720678     4.6490655438    -1.3234744910
 F      1.6709988129     4.9007663571    -2.0217041419
 H      0.7177276795     4.7749140128    -3.3654938734
 F      0.0940617161     4.5634439237    -4.0036240854
 H     -2.7173954747     1.4563635418    -0.6778568736
 F     -2.4060690232     1.0073573052     0.0585928804
 H     -2.2247045891     2.3025286653    -2.5456556247
 F     -3.0072259983     2.3146269800    -2.0677404911
 H     -0.7982052483     1.3107386761     0.2569762047
 F      0.0745026799     1.5912286033     0.2813744160
 H      0.0596958960     3.2048871955     0.0042758111
 F     -0.0142890288     4.0875414906    -0.2330775676
 H     -0.4262283514     3.0737659677    -3.5473121439
 F     -0.6919201104     2.2759767810    -3.1814852683
          14
Energy: -49.33706675603868 Kcal/mole
 H      1.1509792146     4.6450030891    -1.3110519508
 F      1.6700170515     4.9009818610    -2.0223631290
 H      0.7098500171     4.7819620815    -3.3719111023
 F      0.0822884456     4.5973152631    -4.0145315397
 H     -2.7163134469     1.4361990942    -0.6921767934
 F     -2.4161617995     1.0067397350     0.0603938991
 H     -2.2322672608     2.3034527900    -2.5600465942
 F     -3.0195238575     2.2781944661    -2.0904956725
 H     -0.7976882533     1.3124777806     0.2666872139
 F      0.0816393634     1.5696344441     0.3059605246
 H      0.1036366086     3.1959997641     0.0205122679
 F      0.0170240022     4.0797326225    -0.2084058208
 H     -0.4732088299     3.1173923356    -3.5761848737
 F     -0.7157496951     2.3136887084    -3.2072358145
          14
Energy: -49.341011103373475 Kcal/mole
 H      1.1503558495     4.6326033966    -1.3161020545
 F      1.6700501196     4.9016396360    -2.0220952327
 H      0.6926989695     4.8001365718    -3.3560556240
 F      0.0660684517     4.5985713824    -3.9944870366
 H     -2.7170420285     1.4443449551    -0.6871734109
 F     -2.4161231500     1.0063076159     0.0601284813
 H     -2.2494704356     2.2965904745    -2.5678824804
 F     -3.0300112749     2.2785979262    -2.0869237854
 H     -0.7951413889     1.3023073979     0.2801672660
 F      0.0815042581     1.5701739594     0.3052454390
 H      0.0986692647     3.1928899430     0.0100558254
 F      0.0172875083     4.0798975913    -0.2078511307
 H     -0.4458083771     3.1018694735    -3.5469871174
 F     -0.7074093687     2.2995750696    -3.1881311426
          14
Energy: -49.329007572285505 Kcal/mole
 H      1.1472999026     4.5837824873    -1.3074594754
 F      1.6695730717     4.8194892912    -2.0233938574
 H      0.6936939671     4.7615454806    -3.3624557679
 F      0.0725177503     4.5853169159    -4.0135875523
 H     -2.7306973102     1.4530273169    -0.6799688884
 F     -2.4299484637     1.0254750425     0.0734487807
 H     -2.2432339946     2.2925396784    -2.5646143122
 F     -3.0276271943     2.2795802984    -2.0898002826
 H     -0.7982293315     1.3121906698     0.2853629334
 F      0.0816680663     1.5696496747     0.3049698208
 H      0.1200238930     3.1971868679     0.0218003090
 F      0.0418804249     4.0890400012    -0.1766451168
 H     -0.4499858922     3.0838131521    -3.5773868238
 F     -0.7157954429     2.2894598736    -3.2042418765
          14
Energy: -49.33069762846824 Kcal/mole
 H      1.1495588808     4.6084857349    -1.3255676920
 F      1.6740703005     4.8530554807    -2.0368780392
 H      0.6793666476     4.7786661127    -3.3502371238
 F      0.0392075633     4.6104317162    -3.9848886302
 H     -2.6881323980     1.4488877387    -0.7094622068
 F     -2.3950416886     1.0259240494     0.0495427693
 H     -2.2394036355     2.2732044548    -2.5820374181
 F     -3.0188262415     2.2658965420    -2.0989887708
 H     -0.7792152243     1.3015922930     0.2622526131
 F      0.0993582605     1.5636912876     0.2796235316
 H      0.1148567270     3.1853461405     0.0140538029
 F      0.0334033315     4.0733949599    -0.1995431042
 H     -0.4525056599     3.0951547336    -3.5678423891
 F     -0.6973299257     2.2877669843    -3.2085721550
          14
Energy: -49.34000567937693 Kcal/mole
 H      1.1145282738     4.6784520957    -1.3103052932
 F      1.6415939774     4.9357505089    -2.0152083154
 H      0.6690222047     4.8037051340    -3.3639680983
 F      0.0398236844     4.6024445481    -3.9999652670
 H     -2.7094327756     1.4316550222    -0.6957877027
 F     -2.3854457533     0.9982151803     0.0445171756
 H     -2.2324424454     2.2722880375    -2.5604677012
 F     -3.0198215673     2.2635135716    -2.0905250164
 H     -0.7593251846     1.2963717435     0.2476193455
 F      0.1141187332     1.5756290351     0.2473235762
 H      0.0985336057     3.2049389965    -0.0148888341
 F      0.0067168217     4.0950407132    -0.2153323724
 H     -0.4705172749     3.0957876149    -3.5780649255
 F     -0.6963744512     2.2877334114    -3.2080298730
          14
Energy: -49.339595212013265 Kcal/mole
 H      1.1137529212     4.6770546512    -1.3256582888
 F      1.6512046316     4.9290256667    -2.0246184209
 H      0.6804292355     4.7924285448    -3.3656845854
 F      0.0516967407     4.5737304791    -3.9963632721
 H     -2.7028542804     1.4571958459    -0.6739206244
 F     -2.3910519106     1.0364062504     0.0788106680
 H     -2.2429336761     2.2619793878    -2.5776643058
 F     -3.0192650318     2.2640604216    -2.0896127763
 H     -0.7556755856     1.3247499920     0.2760043060
 F      0.1196408112     1.5980381393     0.2711263821
 H      0.0878346735     3.2138943262    -0.0158974559
 F     -0.0176100567     4.0989085752    -0.2315828471
 H     -0.4536033027     3.0760572062    -3.5704335772
 F     -0.7004159068     2.2610999386    -3.2301143293
          14
Energy: -49.34952002347502 Kcal/mole
 H      1.1116744406     4.6704262221    -1.3161476599
 F      1.6486135661     4.9227000421    -2.0153924634
 H      0.6847126545     4.7735268918    -3.3637171505
 F      0.0514695152     4.5747331681    -3.9964676400
 H     -2.6961972458     1.4432862641    -0.6842134106
 F     -2.3914050509     1.0371441215     0.0793566765
 H     -2.2373134941     2.2635056142    -2.5842027756
 F     -3.0187694020     2.2389652626    -2.1050228145
 H     -0.7598643747     1.3304863254     0.2613477330
 F      0.1161426264     1.6015493654     0.2562918106
 H      0.0839666177     3.2137618680    -0.0251891648
 F     -0.0253044839     4.0965121306    -0.2481259279
 H     -0.4488715571     3.0729230495    -3.5654839851
 F     -0.6974027121     2.2631057180    -3.2143185618
          14
Energy: -49.336944855891744 Kcal/mole
 H      1.1092180631     4.6707341009    -1.3193525865
 F      1.6395628718     4.9238153153    -2.0233222469
 H      0.6437036567     4.7999335868    -3.3636792513
 F      0.0159619881     4.6021323949    -4.0021963506
 H     -2.7038038698     1.4181384255    -0.6963514286
 F     -2.3900051323     0.9955156707     0.0545209703
 H     -2.2373890420     2.2596329438    -2.5845077247
 F     -3.0187653943     2.2391706988    -2.1050066376
 H     -0.7728173038     1.3248176436     0.2825953020
 F      0.1000171429     1.6052268184     0.3030824555
 H      0.0805338432     3.2168350242    -0.0118108490
 F     -0.0251223831     4.0963491067    -0.2488356166
 H     -0.4592570978     3.0704280945    -3.5781751964
 F     -0.6968517831     2.2632380696    -3.2136453223
          14
Energy: -49.335704755740366 Kcal/mole
 H      1.1028990430     4.7110808799    -1.3488671989
 F      1.6331988002     4.9851351203    -2.0449745476
 H      0.6534343237     4.7943441941    -3.3677415059
 F      0.0225173930     4.5779149805    -3.9970198403
 H     -2.7007302391     1.4592159855    -0.6696244511
 F     -2.4045642959     1.0637535517     0.1028936377
 H     -2.2182624780     2.2652243491    -2.5697309918
 F     -3.0032204984     2.2596830589    -2.0957065197
 H     -0.7838074274     1.3593123601     0.3004876773
 F      0.0950023306     1.6211018519     0.3074641598
 H      0.0588578559     3.2094620800    -0.0614723779
 F     -0.0536126542     4.0870540076    -0.3024532754
 H     -0.4649625100     3.0671147665    -3.5921922846
 F     -0.6975291708     2.2591875302    -3.2260566142
          14
Energy: -49.34651421283415 Kcal/mole
 H      1.1060998041     4.6652013618    -1.3186269545
 F      1.6391143490     4.9166570907    -2.0211613033
 H      0.6515563593     4.7770629144    -3.3602152823
 F      0.0226170147     4.5788317125    -3.9974190891
 H     -2.7035244907     1.4747805767    -0.6603564948
 F     -2.4044160673     1.0629278861     0.1024019940
 H     -2.2110240115     2.2783468527    -2.5525955350
 F     -3.0034661825     2.2695198942    -2.0912426436
 H     -0.7785574250     1.3469437896     0.2821781527
 F      0.0989306622     1.6130978211     0.2902829872
 H      0.0708186997     3.2297111438    -0.0189882834
 F     -0.0318472753     4.1121635173    -0.2462029533
 H     -0.4484189007     3.0728980471    -3.5597839925
 F     -0.6842390349     2.2683686034    -3.1882866998
          14
Energy: -49.350403453572156 Kcal/mole
 H      1.1099925951     4.6569848678    -1.3327973692
 F      1.6468977160     4.8908056863    -2.0384528914
 H      0.6520014378     4.7673211678    -3.3577077520
 F      0.0225934043     4.5793484896    -3.9975521078
 H     -2.7144822830     1.4796465531    -0.6532984931
 F     -2.4038347817     1.0626697573     0.1020275833
 H     -2.2171378522     2.2670926527    -2.5630015010
 F     -3.0031418574     2.2701169035    -2.0906906311
 H     -0.7703725605     1.3408423858     0.2856298072
 F      0.1060888903     1.6103110619     0.2760926313
 H      0.0798635099     3.2315539190    -0.0161345200
 F     -0.0323270816     4.1120657623    -0.2463543389
 H     -0.4571597584     3.0703794164    -3.5657607324
 F     -0.6904331216     2.2593804241    -3.2069388091
          14
Energy: -49.32657975745501 Kcal/mole
 H      1.1182691311     4.6584055164    -1.3402186609
 F      1.6531238247     4.9135825796    -2.0400072884
 H      0.6748215354     4.7639548867    -3.3795916759
 F      0.0522030657     4.5549832396    -4.0195651846
 H     -2.6851794533     1.5263194034    -0.6421400078
 F     -2.3621909349     1.1008765755     0.1032228683
 H     -2.2186675832     2.3140123563    -2.5212312163
 F     -3.0078687448     2.3242057240    -2.0543836804
 H     -0.7300075057     1.3564919910     0.2826903556
 F      0.1470803359     1.6225724192     0.3111002786
 H      0.0897432766     3.2314966746    -0.0214560753
 F     -0.0328511804     4.1120687990    -0.2460720427
 H     -0.4382634417     3.0691831335    -3.5390844961
 F     -0.6847612429     2.2701329046    -3.1627248734
          14
Energy: -49.348456324672526 Kcal/mole
 H      1.0824000858     4.6539518823    -1.3340148178
 F      1.6318666358     4.8912404175    -2.0287591315
 H      0.6730252055     4.7594444365    -3.3763990330
 F      0.0522983568     4.5552225085    -4.0197345469
 H     -2.6920460037     1.5082731302    -0.6365178099
 F     -2.3702205430     1.0755930126     0.1051730211
 H     -2.2355916174     2.3146499342    -2.5486817046
 F     -3.0069709639     2.3241719020    -2.0529274955
 H     -0.7325298837     1.3404662556     0.2641249618
 F      0.1446176859     1.6078631768     0.2642913965
 H      0.0720765698     3.2292240242    -0.0357954837
 F     -0.0643727788     4.1058323522    -0.2678049977
 H     -0.4555082363     3.0644183808    -3.5716468693
 F     -0.7125344257     2.2605716113    -3.2129591093
          14
Energy: -49.34820655357022 Kcal/mole
 H      1.0818526270     4.6662214347    -1.3303814791
 F      1.6318956773     4.8905895461    -2.0289518718
 H      0.6727932512     4.7630859178    -3.3837840396
 F      0.0609717579     4.5548972533    -4.0343383727
 H     -2.6902595854     1.5030944639    -0.6402826628
 F     -2.3703153084     1.0758677288     0.1053727378
 H     -2.2304431247     2.3064014069    -2.5403380165
 F     -3.0072440795     2.3246094673    -2.0533701088
 H     -0.7443740937     1.3496390447     0.2860146181
 F      0.1291211259     1.6285573663     0.2959981655
 H      0.0585664839     3.2330856180    -0.0216826004
 F     -0.0619508276     4.1131839499    -0.2492600679
 H     -0.4517614183     3.0654767241    -3.5679496261
 F     -0.6978135291     2.2661184568    -3.1919526590
          14
Energy: -49.34063541992613 Kcal/mole
 H      1.0908081609     4.6296251474    -1.3507654923
 F      1.6397146224     4.8688590695    -2.0452853459
 H      0.6865630324     4.7462568429    -3.3917828588
 F      0.0602413028     4.5557899969    -4.0339140538
 H     -2.6804452678     1.4606978521    -0.6571044748
 F     -2.3623322661     1.0191299957     0.0809408804
 H     -2.2268041072     2.3243583093    -2.5361523369
 F     -2.9983389016     2.3196232545    -2.0405712232
 H     -0.7281539813     1.3254737601     0.2735883219
 F      0.1404878227     1.6188217955     0.2908320614
 H      0.0489695612     3.2240345203    -0.0225437745
 F     -0.0684314790     4.0970113656    -0.2775289178
 H     -0.4591228261     3.0625901565    -3.5786556238
 F     -0.6974230234     2.2662715825    -3.1913847305
          14
Energy: -49.33827382078766 Kcal/mole
 H      1.0807423230     4.6655850849    -1.3452035893
 F      1.6327914381     4.8889232037    -2.0425204893
 H      0.6810642950     4.7638292204    -3.3964363476
 F      0.0528832764     4.5642813963    -4.0339771492
 H     -2.6773966838     1.4405489182    -0.6677698112
 F     -2.3534363090     0.9974318152     0.0667953041
 H     -2.2216318062     2.3165138863    -2.5280106758
 F     -2.9986132802     2.3200393830    -2.0410031195
 H     -0.7554861520     1.3436945968     0.3065765929
 F      0.1139008133     1.6308242807     0.3576828462
 H      0.0692059101     3.2377584835    -0.0111253023
 F     -0.0499909217     4.1147673555    -0.2509930862
 H     -0.4528393313     3.0605177392    -3.5789908862
 F     -0.6977563483     2.2663815195    -3.1913669456
          14
Energy: -49.34277284953248 Kcal/mole
 H      1.0941602604     4.6366727079    -1.3431547690
 F      1.6348291519     4.8863867899    -2.0404416733
 H      0.6778932326     4.7454947373    -3.3913930046
 F      0.0504324696     4.5584461052    -4.0334169918
 H     -2.6781488444     1.4525772082    -0.6589902991
 F     -2.3654811247     0.9848617754     0.0651437845
 H     -2.2247369811     2.3130111018    -2.5328899476
 F     -2.9984485579     2.3202251976    -2.0407442854
 H     -0.7567341878     1.3334070551     0.3097634810
 F      0.1091747677     1.6320593409     0.3533237036
 H      0.0653819704     3.2412059516     0.0028902391
 F     -0.0497880705     4.1145844752    -0.2517365783
 H     -0.4677510632     3.0663819401    -3.5760379913
 F     -0.6969653154     2.2660704372    -3.1915235899
          14
Energy: -49.34293537309583 Kcal/mole
 H      1.0923692978     4.6628754861    -1.3357222388
 F      1.6349241584     4.8849967930    -2.0408359518
 H      0.6675613462     4.7559622494    -3.3746126813
 F      0.0401118056     4.5689728136    -4.0166648794
 H     -2.7049146133     1.4582440375    -0.6645292246
 F     -2.3854982529     1.0062039883     0.0665808782
 H     -2.2150505488     2.3244758168    -2.5094009337
 F     -3.0001624558     2.3372748101    -2.0357718813
 H     -0.7733485068     1.3383839142     0.3091422724
 F      0.0952159317     1.6279640923     0.3604076277
 H      0.0472687602     3.2410354263     0.0013589634
 F     -0.0625124279     4.1111483350    -0.2664854260
 H     -0.4689974710     3.0792151376    -3.5506278376
 F     -0.6955338272     2.2773830090    -3.1676976653
          14
Energy: -49.33965113870475 Kcal/mole
 H      1.0936323542     4.6440473735    -1.3320516094
 F      1.6259728015     4.8889702307    -2.0373993550
 H      0.6594129509     4.7642627777    -3.3692019913
 F      0.0405440592     4.5685324898    -4.0169519040
 H     -2.6949930315     1.4306692874    -0.6730353090
 F     -2.3731978035     0.9840112370     0.0603359593
 H     -2.2308950631     2.2969446848    -2.5178366113
 F     -3.0156818709     2.2910014786    -2.0435336021
 H     -0.7721227319     1.3320266302     0.3286060390
 F      0.0951509072     1.6283013316     0.3593751199
 H      0.0349332282     3.2279229808    -0.0088173115
 F     -0.0721451636     4.1040743761    -0.2573770643
 H     -0.4610048708     3.0781172517    -3.5481001488
 F     -0.6959578161     2.2774412493    -3.1678317533
          14
Energy: -49.34781507124531 Kcal/mole
 H      1.0846683684     4.6619524061    -1.3390194359
 F      1.6385410690     4.9045997867    -2.0283932678
 H      0.7161472444     4.7406184928    -3.3936080160
 F      0.1073518602     4.5359688892    -4.0481121948
 H     -2.6907205580     1.4649509078    -0.6507108785
 F     -2.3785856119     1.0150277445     0.0848364841
 H     -2.2233842855     2.3276577696    -2.5225801168
 F     -3.0014397085     2.3279014723    -2.0372774283
 H     -0.7791080266     1.3541394120     0.3224291158
 F      0.0955214609     1.6271282996     0.3597027914
 H      0.0530626166     3.2369637198    -0.0062032396
 F     -0.0793835309     4.1043770185    -0.2725511086
 H     -0.4401268451     3.0629140495    -3.5658517197
 F     -0.6970653471     2.2782477440    -3.1668900735
          14
Energy: -49.337479945307024 Kcal/mole
 H      1.0920847740     4.6719742726    -1.3297180553
 F      1.6381476459     4.9040681498    -2.0288866845
 H      0.6986315571     4.7623834281    -3.3919784419
 F      0.0801632683     4.5658915816    -4.0398803866
 H     -2.6879736150     1.4731452523    -0.6467997909
 F     -2.3787313309     1.0145930535     0.0846290099
 H     -2.2012862078     2.3402853974    -2.5117074691
 F     -2.9803885374     2.3616902289    -2.0285611215
 H     -0.7708628127     1.3709652987     0.3350064319
 F      0.1019119887     1.6494547076     0.3749663507
 H      0.0511934248     3.2472353608     0.0054975008
 F     -0.0585527961     4.1174864848    -0.2619118260
 H     -0.4312030276     3.0671575724    -3.5614987485
 F     -0.6735257566     2.2771298401    -3.1639753185
          14
Energy: -49.33920893710594 Kcal/mole
 H      1.1051724339     4.6353270678    -1.3453884066
 F      1.6602746789     4.8614959161    -2.0393611363
 H      0.7301238267     4.7490904800    -3.4122073073
 F      0.1092440602     4.5547927634    -4.0584624527
 H     -2.6972974437     1.5058325644    -0.6157012191
 F     -2.3807231190     1.0538183697     0.1166599382
 H     -2.2025058519     2.3377544814    -2.5001055351
 F     -2.9849701021     2.3571761970    -2.0223383385
 H     -0.7681237515     1.3704245892     0.3288106906
 F      0.1065122517     1.6450694457     0.3505147172
 H      0.0759277165     3.2529668452    -0.0109809992
 F     -0.0404404995     4.1272478635    -0.2619394406
 H     -0.4471600651     3.0700804127    -3.5778946232
 F     -0.6861387688     2.2831826240    -3.1722222807
          14
Energy: -49.35014330262139 Kcal/mole
 H      1.1139026822     4.6396423166    -1.3371225969
 F      1.6598115594     4.8612670021    -2.0397996184
 H      0.7174710547     4.7483198824    -3.3966454929
 F      0.0987749922     4.5626712553    -4.0475208800
 H     -2.6963760787     1.4978203275    -0.6304410940
 F     -2.3861709631     1.0597140820     0.1130134802
 H     -2.2298253703     2.3259538115    -2.5256658415
 F     -3.0001538874     2.3273071673    -2.0281910740
 H     -0.7677199041     1.3694883194     0.3247995096
 F      0.1064908285     1.6451191127     0.3507275011
 H      0.0827115782     3.2557284440    -0.0047011672
 F     -0.0408003677     4.1271013671    -0.2622725712
 H     -0.4357704639     3.0787533361    -3.5896031794
 F     -0.7048631221     2.2898635877    -3.2073321941
          14
Energy: -49.35240809331516 Kcal/mole
 H      1.1093164199     4.6307005958    -1.3638814060
 F      1.6665991340     4.8705142998    -2.0514963883
 H      0.7262829281     4.7471106531    -3.4047945156
 F      0.0983075426     4.5627354022    -4.0470885932
 H     -2.6994374129     1.5099110300    -0.6218767814
 F     -2.3860085664     1.0590726981     0.1125591632
 H     -2.2219422982     2.3330395694    -2.5231943436
 F     -2.9950189630     2.3515191005    -2.0303455055
 H     -0.7638878830     1.3518202512     0.3355333763
 F      0.1102165786     1.6285303443     0.3517171492
 H      0.0579433068     3.2211228844    -0.0535039805
 F     -0.0700481927     4.0909430770    -0.3141186551
 H     -0.4358053214     3.0816230229    -3.5926804832
 F     -0.6995258551     2.2888200798    -3.2147863531
          14
Energy: -49.36120779981515 Kcal/mole
 H      1.1041278495     4.6354918595    -1.3664587920
 F      1.6668743757     4.8702601343    -2.0513596639
 H      0.7238530016     4.7549145607    -3.4047136983
 F      0.0984364446     4.5623214229    -4.0470928803
 H     -2.6887571236     1.5386459331    -0.6094653587
 F     -2.3930493577     1.0840413556     0.1299807822
 H     -2.2031753318     2.3579157667    -2.5049587033
 F     -2.9709945182     2.3886325997    -2.0045596895
 H     -0.7647524241     1.3548805235     0.3309239700
 F      0.1102624405     1.6283680040     0.3519616676
 H      0.0526248541     3.2203614880    -0.0460962579
 F     -0.0678262552     4.0872543534    -0.3197334085
 H     -0.4389048386     3.0822733296    -3.5934643976
 F     -0.6993614329     2.2887855825    -3.2147447683
          14
Energy: -49.35395664201984 Kcal/mole
 H      1.0991774852     4.6510778717    -1.3553714456
 F      1.6654224974     4.8938853303    -2.0345622319
 H      0.7206957899     4.7626649116    -3.4040213033
 F      0.0986039274     4.5619102847    -4.0471296103
 H     -2.6941177315     1.5252462352    -0.6153863619
 F     -2.3927649899     1.0847521786     0.1302948778
 H     -2.2034251760     2.3512109908    -2.5015097430
 F     -2.9796661772     2.3676902279    -2.0135882915
 H     -0.7647194542     1.3629951829     0.3155436737
 F      0.1124726070     1.6295951742     0.3341858935
 H      0.0639822986     3.2271138412    -0.0530818894
 F     -0.0785947553     4.0930533937    -0.3189944222
 H     -0.4315503804     3.0865844691    -3.5652845281
 F     -0.6857826334     2.2900387200    -3.1887611808
          14
Energy: -49.35045211454309 Kcal/mole
 H      1.1077155927     4.6532999238    -1.3553293763
 F      1.6611632661     4.9117842010    -2.0392669110
 H      0.7268067992     4.7635213316    -3.3925943339
 F      0.1025097910     4.5582817570    -4.0321402373
 H     -2.6893180442     1.5462817012    -0.5980223475
 F     -2.3947634774     1.0919989021     0.1420815274
 H     -2.1872489718     2.3802910109    -2.4854877141
 F     -2.9637840326     2.3970884179    -1.9980452595
 H     -0.7600197797     1.3475193301     0.3265045206
 F      0.1122233001     1.6304161325     0.3336044459
 H      0.0461123297     3.2270969671    -0.0443389740
 F     -0.0776467947     4.0930542889    -0.3194582137
 H     -0.4281742542     3.0822696884    -3.5720274218
 F     -0.6859617291     2.2902676091    -3.1884034859
          14
Energy: -49.35058248148691 Kcal/mole
 H      1.0928421995     4.6623499927    -1.3642391709
 F      1.6619522652     4.9113041157    -2.0387942670
 H      0.7195059040     4.7687233655    -3.4056927875
 F      0.0969624999     4.5672749512    -4.0481468686
 H     -2.7010162527     1.5316808053    -0.6020680711
 F     -2.3941429145     1.0927734459     0.1422961437
 H     -2.1917698073     2.3593670947    -2.4914355229
 F     -2.9635442127     2.3981983833    -1.9977297420
 H     -0.7652590532     1.3643288715     0.3238843809
 F      0.1125012315     1.6295244251     0.3337434382
 H      0.0623337447     3.2231839380    -0.0594119583
 F     -0.0793789780     4.0864497308    -0.3343277186
 H     -0.4361480765     3.0864182401    -3.5753425617
 F     -0.6859413782     2.2909658791    -3.1935731970
          14
Energy: -49.350952418545006 Kcal/mole
 H      1.1096073207     4.6538479044    -1.3535967709
 F      1.6610629143     4.9117551319    -2.0393588217
 H      0.7062685750     4.7807333423    -3.3969559397
 F      0.0976647096     4.5666378497    -4.0486103382
 H     -2.6865118225     1.5278289873    -0.6101137954
 F     -2.3949123410     1.0929777759     0.1427229508
 H     -2.1904611635     2.3462867314    -2.5085509767
 F     -2.9659442988     2.3679467172    -2.0196279236
 H     -0.7634845733     1.3629034244     0.3209591297
 F      0.1150743093     1.6256262585     0.3210065809
 H      0.0599222293     3.2225738593    -0.0600973425
 F     -0.0792510527     4.0864820940    -0.3342913605
 H     -0.4340447757     3.0895029486    -3.5674335889
 F     -0.6860529534     2.2908022425    -3.1939927498
          14
Energy: -49.3550898642108 Kcal/mole
 H      1.1023343879     4.6609608697    -1.3592484201
 F      1.6632951354     4.9169898685    -2.0379686803
 H      0.7083407776     4.7725672176    -3.3958971577
 F      0.0792122084     4.5734707080    -4.0326442215
 H     -2.6932156737     1.5389548504    -0.6009134725
 F     -2.3945567172     1.0923875746     0.1422348949
 H     -2.1932189705     2.3450879217    -2.5128424670
 F     -2.9657980035     2.3680103113    -2.0194002700
 H     -0.7606292360     1.3535473689     0.3204683123
 F      0.1149228403     1.6261225756     0.3210326176
 H      0.0469123200     3.2186858251    -0.0661688087
 F     -0.0785609071     4.0866883452    -0.3339692833
 H     -0.4417263214     3.0881509801    -3.5753350481
 F     -0.6856454652     2.2908739613    -3.1935735956
          14
Energy: -49.35323868368114 Kcal/mole
 H      1.0847698062     4.6931569758    -1.3552976697
 F      1.6339675767     4.9617184077    -2.0387781495
 H      0.7027469598     4.7884069198    -3.3957645830
 F      0.0851012208     4.5736664156    -4.0386403540
 H     -2.6898241298     1.5555452520    -0.5972964525
 F     -2.3969464893     1.1200314739     0.1546606186
 H     -2.1990687167     2.3573549604    -2.5107921385
 F     -2.9638038767     2.3799408890    -2.0052636913
 H     -0.7661351201     1.3719503742     0.3226268581
 F      0.1152149147     1.6251463387     0.3209181117
 H      0.0593888755     3.2182640456    -0.0738025388
 F     -0.0792227595     4.0867107197    -0.3335643316
 H     -0.4454235580     3.0956673610    -3.5848029954
 F     -0.7042125477     2.2942616132    -3.2219447775
          14
Energy: -49.35306566758187 Kcal/mole
 H      1.0938115094     4.6869327479    -1.3609041253
 F      1.6491654396     4.9420506288    -2.0445603832
 H      0.7070755323     4.7948482323    -3.4067127023
 F      0.0813203140     4.5783106522    -4.0410871054
 H     -2.7011277504     1.5420449559    -0.6004886345
 F     -2.3963468583     1.1207476334     0.1548299565
 H     -2.2168711765     2.3580994822    -2.5195384164
 F     -2.9874884648     2.3645704305    -2.0225513725
 H     -0.7593941533     1.3742955205     0.3266642870
 F      0.1199967967     1.6342184921     0.3258858478
 H      0.0514133245     3.2186137381    -0.0685624320
 F     -0.0787996750     4.0866921693    -0.3338423071
 H     -0.4443539429     3.0869919015    -3.5923610878
 F     -0.7004745017     2.2881301211    -3.2220759069
          14
Energy: -49.3550139501431 Kcal/mole
 H      1.0918507963     4.6804813031    -1.3649519701
 F      1.6492694509     4.9423928631    -2.0443456544
 H      0.6957450442     4.7902155790    -3.3910564766
 F      0.0742041466     4.5756829527    -4.0302369401
 H     -2.6885201792     1.5420481077    -0.5975220992
 F     -2.3909480312     1.0991745778     0.1482679874
 H     -2.2040183321     2.3465348182    -2.5113869402
 F     -2.9750234755     2.3722271117    -2.0156249258
 H     -0.7733265906     1.3914346438     0.3614958723
 F      0.1067315998     1.6487740435     0.3742636000
 H      0.0557164236     3.2407259192    -0.0423148966
 F     -0.0840251982     4.0981013193    -0.3360302391
 H     -0.4400614915     3.0911448476    -3.5733122574
 F     -0.6944304244     2.2881170353    -3.2109149912
          14
Energy: -49.358138487580675 Kcal/mole
 H      1.0965841724     4.6615852846    -1.3506774025
 F      1.6527019393     4.9103556551    -2.0360498064
 H      0.6981615975     4.7708484169    -3.3872318407
 F      0.0740759541     4.5767103359    -4.0304398282
 H     -2.6937412539     1.5384070701    -0.5975724329
 F     -2.3906710652     1.0993677264     0.1482706574
 H     -2.1870467515     2.3561489488    -2.4993556541