          14
Energy: -49.36844077546475 Kcal/mole
 H      1.0862775795     4.6600743939    -1.3555648109
 F      1.6380228264     4.9350377684    -2.0344324897
 H      0.6894596752     4.8036105578    -3.3874752949
 F      0.0692432597     4.6057340151    -4.0332813585
 H     -2.6909062703     1.4671907431    -0.6378468364
 F     -2.3838982822     1.0240261195     0.1039349453
 H     -2.2209742413     2.3226984059    -2.5322501442
 F     -2.9907982042     2.3144867506    -2.0340607876
 H     -0.7625381987     1.3171675324     0.3106247698
 F      0.1126421951     1.5904910324     0.3261985536
 H      0.0495374157     3.1835337995    -0.0686243779
 F     -0.0903561756     4.0482314768    -0.3399483725
 H     -0.4644831377     3.1117438935    -3.6041976229
 F     -0.7156255682     2.3077464871    -3.2416998297
          14
Energy: -49.36834402096433 Kcal/mole
 H      1.0885637488     4.6617290251    -1.3530476540
 F      1.6379015504     4.9349499940    -2.0345660190
 H      0.6879960075     4.8006479341    -3.3851750853
 F      0.0693209039     4.6058911754    -4.0334033793
 H     -2.6900569926     1.4687765696    -0.6372483589
 F     -2.3839433345     1.0239419950     0.1039031974
 H     -2.2206695914     2.3229016471    -2.5317756560
 F     -2.9908143651     2.3144759691    -2.0340859581
 H     -0.7621317766     1.3158591831     0.3108120541
 F      0.1126206353     1.5905604373     0.3261886186
 H      0.0460341106     3.1823681891    -0.0705666105
 F     -0.0901703334     4.0482933097    -0.3398453415
 H     -0.4673742842     3.1127406154    -3.6039763189
 F     -0.7154721996     2.3076936133    -3.2417115693
          14
Energy: -49.36838287849473 Kcal/mole
 H      1.0882470564     4.6594997591    -1.3542015830
 F      1.6379183502     4.9350682514    -2.0345048057
 H      0.6902857190     4.8001027177    -3.3872044448
 F      0.0691994400     4.6059200979    -4.0332957265
 H     -2.6879039655     1.4684449879    -0.6383324188
 F     -2.3840575476     1.0239595847     0.1039607043
 H     -2.2201876154     2.3227933225    -2.5310308160
 F     -2.9908399329     2.3144817155    -2.0341254701
 H     -0.7620430002     1.3155016085     0.3122224930
 F      0.1126159259     1.5905794058     0.3261137981
 H      0.0489636365     3.1826784477    -0.0710681562
 F     -0.0903257380     4.0482768512    -0.3398187357
 H     -0.4658038638     3.1133397974    -3.6015566578
 F     -0.7155555067     2.3076618280    -3.2418399268
          14
Energy: -49.36866013328017 Kcal/mole
 H      1.0878971649     4.6609660817    -1.3538921621
 F      1.6379369112     4.9349904664    -2.0345212198
 H      0.6886148392     4.8019065943    -3.3861462257
 F      0.0692880763     4.6058244064    -4.0333518626
 H     -2.6872188403     1.4687017221    -0.6384587409
 F     -2.3840938919     1.0239459655     0.1039674054
 H     -2.2197814294     2.3259477919    -2.5303368678
 F     -2.9908614801     2.3143143782    -2.0341622825
 H     -0.7612269929     1.3129029951     0.3125873980
 F      0.1125726386     1.5907172562     0.3260944407
 H      0.0482032974     3.1837133149    -0.0673709693
 F     -0.0902854037     4.0482219539    -0.3400148629
 H     -0.4645892057     3.1131639627    -3.6011046425
 F     -0.7156199415     2.3076711557    -3.2418639051
          14
Energy: -49.368162970087525 Kcal/mole
 H      1.0866587875     4.6622870441    -1.3543638203
 F      1.6380026042     4.9349203924    -2.0344961994
 H      0.6881367186     4.8044234355    -3.3864566390
 F      0.0693134395     4.6056908938    -4.0333353959
 H     -2.6882024950     1.4702599166    -0.6371199979
 F     -2.3840417113     1.0238633069     0.1038963882
 H     -2.2226005719     2.3271109243    -2.5346609739
 F     -2.9907119311     2.3142526767    -2.0339328987
 H     -0.7608986887     1.3122082831     0.3069149222
 F      0.1125552229     1.5907541091     0.3263953525
 H      0.0475678584     3.1837801731    -0.0668375414
 F     -0.0902516952     4.0482184072    -0.3400431600
 H     -0.4650334047     3.1136313653    -3.6003656163
 F     -0.7155963778     2.3076463610    -3.2419031088
          14
Energy: -49.367826705046284 Kcal/mole
 H      1.0878902385     4.6570268344    -1.3554977171
 F      1.6379372786     4.9351994344    -2.0344360488
 H      0.6904803232     4.7997465285    -3.3872846043
 F      0.0691891167     4.6059389929    -4.0332914742
 H     -2.6885762004     1.4660631819    -0.6394782003
 F     -2.3840218871     1.0240859340     0.1040214854
 H     -2.2231843669     2.3207809387    -2.5356754839
 F     -2.9906809621     2.3145884678    -2.0338790812
 H     -0.7611051310     1.3128046010     0.3076708864
 F      0.1125661741     1.5907224758     0.3263552503
 H      0.0467483793     3.1843062505    -0.0647696816
 F     -0.0902082237     4.0481905001    -0.3401528552
 H     -0.4665109274     3.1133323388    -3.6020631708
 F     -0.7155179986     2.3076622237    -3.2418130574
          14
Energy: -49.36858620101532 Kcal/mole
 H      1.0876513148     4.6567552700    -1.3558027211
 F      1.6379499529     4.9352138402    -2.0344198691
 H      0.6904296307     4.8010179611    -3.3876187025
 F      0.0691918058     4.6058715463    -4.0332737511
 H     -2.6889090988     1.4679564900    -0.6382125994
 F     -2.3840042276     1.0239854983     0.1039543482
 H     -2.2216743903     2.3238626179    -2.5333097180
 F     -2.9907610629     2.3144249919    -2.0340045797
 H     -0.7607019591     1.3114898746     0.3084446436
 F      0.1125447868     1.5907922190     0.3263142043
 H      0.0467820546     3.1841165094    -0.0653824412
 F     -0.0902100101     4.0482005654    -0.3401203497
 H     -0.4655729076     3.1127828240    -3.6026415346
 F     -0.7155677584     2.3076913742    -3.2417823766
          14
Energy: -49.36838355093589 Kcal/mole
 H      1.0870975305     4.6609027063    -1.3545647371
 F      1.6379793299     4.9349938283    -2.0344855413
 H      0.6892579180     4.8030785654    -3.3871188959
 F      0.0692539625     4.6057622360    -4.0333002647
 H     -2.6906980163     1.4686323886    -0.6370698078
 F     -2.3839093296     1.0239496435     0.1038937257
 H     -2.2222313070     2.3248666579    -2.5341464385
 F     -2.9907315197     2.3143717299    -2.0339601936
 H     -0.7618259655     1.3151186892     0.3071299581
 F      0.1126044127     1.5905997188     0.3263839453
 H      0.0474493223     3.1846771581    -0.0639572000
 F     -0.0902454071     4.0481708243    -0.3401959555
 H     -0.4662068581     3.1131118033    -3.6023458829
 F     -0.7155341288     2.3076739226    -3.2417980602
          14
Energy: -49.36783148413504 Kcal/mole
 H      1.0850513075     4.6624152288    -1.3556187600
 F      1.6380878773     4.9349135925    -2.0344296278
 H      0.6917926741     4.7988578159    -3.3904959982
 F      0.0709435674     4.6048278711    -4.0368610399
 H     -2.6873217122     1.4701483570    -0.6375480424
 F     -2.3840884348     1.0238692249     0.1039190950
 H     -2.2195124649     2.3239509120    -2.5299612449
 F     -2.9908757480     2.3144203081    -2.0341822084
 H     -0.7615179788     1.3142261208     0.3059741249
 F      0.1125880748     1.5906470675     0.3264452596
 H      0.0516864855     3.1844712854    -0.0667621015
 F     -0.0904701788     4.0481817453    -0.3400471619
 H     -0.4641259738     3.1110424389    -3.6055025847
 F     -0.7156445149     2.3077836976    -3.2416306045
          14
Energy: -49.36794422512301 Kcal/mole
 H      1.0876751726     4.6623540799    -1.3535143861
 F      1.6379486873     4.9349168363    -2.0345412600
 H      0.6889542179     4.8018031461    -3.3886700862
 F      0.0710941409     4.6046716282    -4.0369579004
 H     -2.6904143149     1.4646947525    -0.6395350158
 F     -2.3839243793     1.0241585260     0.1040244993
 H     -2.2221567757     2.3230154910    -2.5340671479
 F     -2.9907354734     2.3144699300    -2.0339643998
 H     -0.7615207676     1.3141071807     0.3077838479
 F      0.1125882227     1.5906533770     0.3263492580
 H      0.0495147366     3.1836513099    -0.0682385009
 F     -0.0903549726     4.0482252431    -0.3399688424
 H     -0.4686827271     3.1132635116    -3.6037074064
 F     -0.7154027897     2.3076658748    -3.2417258345
          14
Energy: -49.367415488136146 Kcal/mole
 H      1.0884469500     4.6559972326    -1.3554696015
 F      1.6379077463     4.9352540524    -2.0344375403
 H      0.6906983553     4.7987553016    -3.3894160395
 F      0.0710016185     4.6048333093    -4.0369183293
 H     -2.6879919956     1.4680580570    -0.6385279405
 F     -2.3840528778     1.0239801104     0.1039710763
 H     -2.2219938366     2.3204194199    -2.5338539256
 F     -2.9907441170     2.3146076456    -2.0339757107
 H     -0.7609790812     1.3122500757     0.3102168404
 F      0.1125594875     1.5907518921     0.3262201933
 H      0.0453893569     3.1842936293    -0.0641376859
 F     -0.0901361307     4.0481911696    -0.3401863811
 H     -0.4672832643     3.1142469407    -3.6005461238
 F     -0.7154770280     2.3076137062    -3.2418935333
          14
Energy: -49.36859851692492 Kcal/mole
 H      1.0866412774     4.6582027521    -1.3560302809
 F      1.6380035331     4.9351370547    -2.0344077976
 H      0.6913558888     4.8036177629    -3.3915248003
 F      0.0709667378     4.6045753669    -4.0368064644
 H     -2.6903561876     1.4680505457    -0.6375600321
 F     -2.3839274629     1.0239805089     0.1039197310
 H     -2.2214367027     2.3243528937    -2.5329338756
 F     -2.9907736717     2.3143989839    -2.0340245172
 H     -0.7617191576     1.3147491309     0.3075762561
 F      0.1125987468     1.5906193230     0.3263602702
 H      0.0499335298     3.1835208770    -0.0688702185
 F     -0.0903771886     4.0482321623    -0.3399353312
 H     -0.4642522627     3.1126605234    -3.6019963060
 F     -0.7156378156     2.3076978620    -3.2418166045
          14
Energy: -49.36815025189688 Kcal/mole
 H      1.0864088706     4.6626470976    -1.3544222361
 F      1.6380158617     4.9349012924    -2.0344931006
 H      0.6906328270     4.8050301193    -3.3912673926
 F      0.0710050946     4.6045004447    -4.0368201192
 H     -2.6908922918     1.4692212187    -0.6366355815
 F     -2.3838990238     1.0239184074     0.1038706910
 H     -2.2209156317     2.3222962834    -2.5321660241
 F     -2.9908013133     2.3145080823    -2.0340652500
 H     -0.7617430862     1.3146533666     0.3103055451
 F      0.1126000162     1.5906244031     0.3262154878
 H      0.0493184985     3.1837403399    -0.0678545956
 F     -0.0903445626     4.0482205203    -0.3399892076
 H     -0.4626833811     3.1126543219    -3.6009098492
 F     -0.7157210411     2.3076981909    -3.2418742385
          14
Energy: -49.36787442632067 Kcal/mole
 H      1.0866302376     4.6600724120    -1.3552791529
 F      1.6380041187     4.9350378735    -2.0344476432
 H      0.6916717825     4.8007182771    -3.3909413570
 F      0.0709499804     4.6047291780    -4.0368374147
 H     -2.6880759620     1.4699850682    -0.6373374083
 F     -2.3840484235     1.0238778870     0.1039079213
 H     -2.2197107658     2.3250446144    -2.5302473497
 F     -2.9908652286     2.3143622897    -2.0341670312
 H     -0.7617591501     1.3146347666     0.3115633539
 F      0.1126008683     1.5906253897     0.3261487639
 H      0.0536470614     3.1843378555    -0.0682151584
 F     -0.0905741828     4.0481888235    -0.3399700806
 H     -0.4641034265     3.1124014689    -3.6024709257
 F     -0.7156457110     2.3077116042    -3.2417914270
          14
Energy: -49.36805421161904 Kcal/mole
 H      1.0881404030     4.6617282369    -1.3533894365
 F      1.6379240079     4.9349500358    -2.0345478882
 H      0.6887661817     4.8018264369    -3.3884980111
 F      0.0711041158     4.6046703926    -4.0369670285
 H     -2.6894444576     1.4712791073    -0.6359935089
 F     -2.3839758280     1.0238092412     0.1038366306
 H     -2.2196164970     2.3249541435    -2.5301027172
 F     -2.9908702294     2.3143670889    -2.0341747036
 H     -0.7624191124     1.3169971641     0.3072982135
 F      0.1126358778     1.5905000700     0.3263750197
 H      0.0487470165     3.1844872460    -0.0652039390
 F     -0.0903142468     4.0481808987    -0.3401298188
 H     -0.4659596090     3.1132300083    -3.6019104562
 F     -0.7155472448     2.3076676521    -3.2418211586
          14
Energy: -49.36780446048586 Kcal/mole
 H      1.0875511523     4.6608779593    -1.3542074409
 F      1.6379552663     4.9349951411    -2.0345044950
 H      0.6927113472     4.8035759159    -3.3928179272
 F      0.0708948339     4.6045775868    -4.0367378670
 H     -2.6878011757     1.4705486332    -0.6371106253
 F     -2.3840630003     1.0238479911     0.1038958910
 H     -2.2213928747     2.3246620178    -2.5328600151
 F     -2.9907759966     2.3143825855    -2.0340284354
 H     -0.7618382641     1.3151134724     0.3077745142
 F      0.1126050652     1.5905999955     0.3263497531
 H      0.0496760556     3.1850581136    -0.0638860536
 F     -0.0903635302     4.0481506155    -0.3401997296
 H     -0.4670835463     3.1135827902    -3.6018982435
 F     -0.7154876225     2.3076489378    -3.2418218064
          14
Energy: -49.36841715251471 Kcal/mole
 H      1.0864477646     4.6605510505    -1.3552337165
 F      1.6380137985     4.9350124828    -2.0344500535
 H      0.6921436977     4.8011876544    -3.3915379569
 F      0.0709249464     4.6047042786    -4.0368057664
 H     -2.6853575037     1.4694405406    -0.6387731966
 F     -2.3841926315     1.0239067729     0.1039840866
 H     -2.2217719798     2.3226070470    -2.5334820650
 F     -2.9907558860     2.3144915970    -2.0339954371
 H     -0.7617464224     1.3147036397     0.3096319573
 F      0.1126001932     1.5906217362     0.3262512200
 H      0.0491790673     3.1840061980    -0.0669402878
 F     -0.0903371661     4.0482064171    -0.3400377096
 H     -0.4635096240     3.1118161020    -3.6033606063
 F     -0.7156772108     2.3077426566    -3.2417442315
          14
Energy: -49.36803321183399 Kcal/mole
 H      1.0855034538     4.6602681606    -1.3561162245
 F      1.6380638920     4.9350274895    -2.0344032384
 H      0.6902002755     4.8024450932    -3.3900560186
 F      0.0710280405     4.6046375743    -4.0368843798
 H     -2.6886197084     1.4635468214    -0.6409502220
 F     -2.3840195791     1.0242194211     0.1040995727
 H     -2.2211511590     2.3252475085    -2.5324745543
 F     -2.9907888191     2.3143515266    -2.0340488832
 H     -0.7624239885     1.3168876707     0.3091908823
 F      0.1126361365     1.5905058784     0.3262746180
 H      0.0514077184     3.1837583675    -0.0688800232
 F     -0.0904553909     4.0482195640    -0.3399348111
 H     -0.4634617449     3.1127758388    -3.6011849557
 F     -0.7156797507     2.3076917447    -3.2418596447
          14
Energy: -49.36844338617263 Kcal/mole
 H      1.0847044863     4.6608853555    -1.3565180005
 F      1.6381062754     4.9349947487    -2.0343819252
 H      0.6917618709     4.7996066029    -3.3906916752
 F      0.0709452014     4.6047881497    -4.0368506597
 H     -2.6870838697     1.4663310582    -0.6399284807
 F     -2.3841010518     1.0240717237     0.1040453717
 H     -2.2203363508     2.3254117988    -2.5312103690
 F     -2.9908320428     2.3143428114    -2.0341159453
 H     -0.7616146266     1.3143905735     0.3079853025
 F      0.1125932017     1.5906383436     0.3263385713
 H      0.0486273922     3.1842823538    -0.0657878715
 F     -0.0903079010     4.0481917677    -0.3400988426
 H     -0.4637075127     3.1111723087    -3.6049258820
 F     -0.7156667133     2.3077768083    -3.2416611972
          14
Energy: -49.36817953090693 Kcal/mole
 H      1.0884590967     4.6594712688    -1.3540418544
 F      1.6379071020     4.9350697628    -2.0345132790
 H      0.6920402408     4.7995889961    -3.3909539384
 F      0.0709304345     4.6047890837    -4.0368367473
 H     -2.6879347923     1.4665407160    -0.6394566098
 F     -2.3840559123     1.0240606019     0.1040203401
 H     -2.2226179076     2.3232155773    -2.5347716271
 F     -2.9907110115     2.3144593159    -2.0339270288
 H     -0.7605308783     1.3109446191     0.3086171737
 F      0.1125357114     1.5908211435     0.3263050520
 H      0.0456242625     3.1828919232    -0.0686829249
 F     -0.0901485919     4.0482655269    -0.3399452667
 H     -0.4644893892     3.1125624566    -3.6023806639
 F     -0.7156252366     2.3077030642    -3.2417962152
          14
Energy: -49.3686233774054 Kcal/mole
 H      1.0864725486     4.6613830407    -1.3548780304
 F      1.6380124838     4.9349683477    -2.0344689218
 H      0.6919183559     4.8004372801    -3.3910931876
 F      0.0709369003     4.6047440842    -4.0368293604
 H     -2.6874817503     1.4695858808    -0.6378208437
 F     -2.3840799451     1.0238990629     0.1039335664
 H     -2.2210048270     2.3221727265    -2.5323057749
 F     -2.9907965817     2.3145146367    -2.0340578365
 H     -0.7619964491     1.3155599108     0.3086270943
 F      0.1126134565     1.5905763130     0.3263045257
 H      0.0474109217     3.1832356336    -0.0684871919
 F     -0.0902433700     4.0482472938    -0.3399556499
 H     -0.4656697448     3.1130377854    -3.6021393155
 F     -0.7155626214     2.3076778491    -3.2418090181
          14
Energy: -49.36834258496077 Kcal/mole
 H      1.0887054361     4.6594757972    -1.3538411913
 F      1.6378940342     4.9350695225    -2.0345239237
 H      0.6891725545     4.8038532444    -3.3895055886
 F      0.0710825587     4.6045628752    -4.0369135789
 H     -2.6869749168     1.4658404308    -0.6402642493
 F     -2.3841068315     1.0240977504     0.1040631835
 H     -2.2199796665     2.3250856199    -2.5306642086
 F     -2.9908509641     2.3143601144    -2.0341449178
 H     -0.7618963368     1.3151751093     0.3096994337
 F      0.1126081458     1.5905967258     0.3262476406
 H      0.0469555542     3.1827419988    -0.0698336046
 F     -0.0902192138     4.0482734800    -0.3398842258
 H     -0.4658936180     3.1115437024    -3.6056129728
 F     -0.7155507455     2.3077571067    -3.2416247486
          14
Energy: -49.36886867116338 Kcal/mole
 H      1.0889538357     4.6608777927    -1.3530751618
 F      1.6378808572     4.9349951499    -2.0345645598
 H      0.6891458028     4.8016401991    -3.3888031958
 F      0.0710839778     4.6046802721    -4.0369508392
 H     -2.6886189681     1.4674378302    -0.6386416798
 F     -2.3840196183     1.0240130120     0.1039771099
 H     -2.2213778925     2.3263844849    -2.5327982762
 F     -2.9907767914     2.3142912126    -2.0340317105
 H     -0.7614296994     1.3136912165     0.3098142896
 F      0.1125833917     1.5906754429     0.3262415477
 H      0.0481383501     3.1833842342    -0.0683836376
 F     -0.0902819584     4.0482394109    -0.3399611432
 H     -0.4656731436     3.1128210288    -3.6026257222
 F     -0.7155624411     2.3076893475    -3.2417832154
          14
Energy: -49.367801578647516 Kcal/mole
 H      1.0900944825     4.6617347985    -1.3545071642
 F      1.6373962104     4.9341020933    -2.0380025009
 H      0.6910808735     4.8012265426    -3.3905283401
 F      0.0709813268     4.6047022156    -4.0368593243
 H     -2.6854203339     1.4686536132    -0.6392191667
 F     -2.3841892985     1.0239485176     0.1040077442
 H     -2.2196476202     2.3255357651    -2.5301383412
 F     -2.9908685783     2.3143362353    -2.0341728139
 H     -0.7617997264     1.3147626355     0.3115768836
 F      0.1126030208     1.5906186066     0.3261480462
 H      0.0477597188     3.1831458331    -0.0689508678
 F     -0.0902618729     4.0482520575    -0.3399310529
 H     -0.4646284689     3.1138997863    -3.5994775326
 F     -0.7156178587     2.3076321219    -3.2419502196
          14
Energy: -49.36892732575306 Kcal/mole
 H      1.0873656217     4.6603426140    -1.3572601127
 F      1.6375409701     4.9341759455    -2.0378564634
 H      0.6916334875     4.7983268255    -3.3901840291
 F      0.0709520119     4.6048560389    -4.0368775892
 H     -2.6885533900     1.4684540765    -0.6380607929
 F     -2.3840230971     1.0239591025     0.1039462952
 H     -2.2206571215     2.3244267985    -2.5317280760
 F     -2.9908150266     2.3143950634    -2.0340884821
 H     -0.7616457534     1.3145548812     0.3070222445
 F      0.1125948529     1.5906296275     0.3263896593
 H      0.0481029412     3.1842939993    -0.0654862699
 F     -0.0902800801     4.0481911500    -0.3401148419
 H     -0.4653208427     3.1122319091    -3.6036938722
 F     -0.7155811299     2.3077205990    -3.2417265525
          14
Energy: -49.36814772016099 Kcal/mole
 H      1.0872484227     4.6595006028    -1.3555186615
 F      1.6383007598     4.9318019287    -2.0360201748
 H      0.6912841651     4.7998697991    -3.3903124189
 F      0.0709705426     4.6047741877    -4.0368707784
 H     -2.6887374084     1.4626091039    -0.6414542278
 F     -2.3840133353     1.0242691648     0.1041263091
 H     -2.2202221368     2.3264045893    -2.5310101304
 F     -2.9908381016     2.3142901461    -2.0341265675
 H     -0.7614527437     1.3138562641     0.3083290449
 F      0.1125846142     1.5906666875     0.3263203365
 H      0.0457156479     3.1838630671    -0.0656502473
 F     -0.0901534397     4.0482140099    -0.3401061432
 H     -0.4631258778     3.1129936724    -3.6004601330
 F     -0.7156975677     2.3076801892    -3.2418980949
          14
Energy: -49.368469579374704 Kcal/mole
 H      1.0859851424     4.6606916219    -1.3560676144
 F      1.6383677739     4.9317387479    -2.0359910541
 H      0.6907136091     4.8015469064    -3.3902736378
 F      0.0710008093     4.6046852211    -4.0368728356
 H     -2.6863279105     1.4661641803    -0.6403350049
 F     -2.3841411536     1.0240805762     0.1040669369
 H     -2.2212755454     2.3257187708    -2.5326560362
 F     -2.9907822207     2.3143265272    -2.0340392560
 H     -0.7618028042     1.3149333677     0.3088075186
 F      0.1126031841     1.5906095496     0.3262949546
 H      0.0452373574     3.1827768555    -0.0688567309
 F     -0.0901280675     4.0482716309    -0.3399360467
 H     -0.4621787948     3.1109617952    -3.6043271685
 F     -0.7157478083     2.3077879756    -3.2416929576
          14
Energy: -49.36809569988682 Kcal/mole
 H      1.0858179409     4.6561251130    -1.3580430535
 F      1.6383766435     4.9319809907    -2.0358862617
 H      0.6926881389     4.8009248926    -3.3919825556
 F      0.0708960650     4.6047182175    -4.0367821815
 H     -2.6899845024     1.4659173958    -0.6389864003
 F     -2.3839471799     1.0240936676     0.1039953965
 H     -2.2176227118     2.3269732526    -2.5269397627
 F     -2.9909759951     2.3142599799    -2.0343424911
 H     -0.7619102998     1.3151983432     0.3100546653
 F      0.1126088865     1.5905954933     0.3262287963
 H      0.0461819325     3.1831977172    -0.0679882375
 F     -0.0901781750     4.0482493052    -0.3399821183
 H     -0.4655053205     3.1123704971    -3.6035132665
 F     -0.7155713438     2.3077132472    -3.2417361332
          14
Energy: -49.36887490211872 Kcal/mole
 H      1.0879009584     4.6592547192    -1.3550891639
 F      1.6382661443     4.9318149723    -2.0360429587
 H      0.6907871634     4.8019558236    -3.3904688030
 F      0.0709969074     4.6046635290    -4.0368624826
 H     -2.6884823516     1.4691443026    -0.6376760256
 F     -2.3840268655     1.0239224876     0.1039258842
 H     -2.2198094136     2.3263116620    -2.5303716827
 F     -2.9908599956     2.3142950757    -2.0341604356
 H     -0.7609876973     1.3124429103     0.3075640596
 F      0.1125599446     1.5907416627     0.3263609172
 H      0.0479453255     3.1839831979    -0.0663863204
 F     -0.0902717189     4.0482076372    -0.3400670962
 H     -0.4669009666     3.1128843118    -3.6033318759
 F     -0.7154973080     2.3076859905    -3.2417457556
          14
Energy: -49.36843454842918 Kcal/mole
 H      1.0861763418     4.6603029710    -1.3560673589
 F      1.6383576312     4.9317593649    -2.0359910677
 H      0.6943231682     4.7989194426    -3.3929552437
 F      0.0708093305     4.6048246020    -4.0367305827
 H     -2.6876844412     1.4682425827    -0.6385433832
 F     -2.3840691928     1.0239703218     0.1039718955
 H     -2.2216124919     2.3251202621    -2.5331889164
 F     -2.9907643464     2.3143582767    -2.0340109879
 H     -0.7616576873     1.3146739848     0.3058979199
 F      0.1125954860     1.5906233093     0.3264493021
 H      0.0486233374     3.1838610258    -0.0671164684
 F     -0.0903076859     4.0482141182    -0.3400283636
 H     -0.4654819112     3.1115988380    -3.6052083447
 F     -0.7155725856     2.3077541819    -3.2416462132
          14
Energy: -49.368834155832204 Kcal/mole
 H      1.0869811610     4.6596205130    -1.3556871896
 F      1.6383149374     4.9317955678    -2.0360112348
 H      0.6900944368     4.8014501649    -3.3896513930
 F      0.0710336550     4.6046903530    -4.0369058443
 H     -2.6900137356     1.4680642056    -0.6376932791
 F     -2.3839456291     1.0239797843     0.1039267994
 H     -2.2211252754     2.3266606513    -2.5324015782
 F     -2.9907901922     2.3142765626    -2.0340527544
 H     -0.7619799937     1.3157182692     0.3056194716
 F      0.1126125836     1.5905679124     0.3264640731
 H      0.0483542554     3.1839404174    -0.0667284843
 F     -0.0902934117     4.0482099067    -0.3400489452
 H     -0.4653866598     3.1131574396    -3.6016751058
 F     -0.7155776384     2.3076715017    -3.2418336434
          14
Energy: -49.36882018898655 Kcal/mole
 H      1.0885217517     4.6572068560    -1.3554107255
 F      1.6382332126     4.9319236067    -2.0360259006
 H      0.6918213274     4.7989084898    -3.3905387362
 F      0.0709420474     4.6048251830    -4.0368587728
 H     -2.6879768973     1.4681407794    -0.6384846396
 F     -2.3840536787     1.0239757222     0.1039687793
 H     -2.2220625576     2.3265656331    -2.5338483571
 F     -2.9907404715     2.3142816031    -2.0339760061
 H     -0.7615177707     1.3140591140     0.3083684993
 F      0.1125880637     1.5906559268     0.3263182436
 H      0.0472114212     3.1828084047    -0.0697508886
 F     -0.0902327870     4.0482699573    -0.3398886137
 H     -0.4659254576     3.1131305505    -3.6021092100
 F     -0.7155490565     2.3076729281    -3.2418106152
          14
Energy: -49.368716124900914 Kcal/mole
 H      1.0883248298     4.6607518620    -1.3541498838
 F      1.6382436589     4.9317355523    -2.0360927853
 H      0.6890567339     4.7991435769    -3.3879652250
 F      0.0710887027     4.6048127122    -4.0369952916
 H     -2.6898092685     1.4675920323    -0.6380601185
 F     -2.3839564756     1.0240048320     0.1039462594
 H     -2.2210090124     2.3243155934    -2.5322744519
 F     -2.9907963596     2.3144009626    -2.0340594981
 H     -0.7618775797     1.3150008333     0.3117425750
 F      0.1126071508     1.5906059707     0.3261392566
 H      0.0477560910     3.1830195979    -0.0693523712
 F     -0.0902616805     4.0482587540    -0.3399097541
 H     -0.4652959773     3.1113185868    -3.6056995717
 F     -0.7155824489     2.3077690486    -3.2416201548
          14
Energy: -49.368596294871566 Kcal/mole
 H      1.0885861493     4.6551236652    -1.3562033984
 F      1.6382297965     4.9320341151    -2.0359838511
 H      0.6915705476     4.8002280703    -3.3906955741
 F      0.0709553507     4.6047551823    -4.0368504529
 H     -2.6907180284     1.4660870227    -0.6385828700
 F     -2.3839082680     1.0240846693     0.1039739902
 H     -2.2226117464     2.3252913723    -2.5347213546
 F     -2.9907113383     2.3143491997    -2.0339296956
 H     -0.7615335369     1.3140815629     0.3087957183
 F      0.1125889001     1.5906547359     0.3262955806
 H      0.0460650877     3.1833060090    -0.0675856099
 F     -0.0901719766     4.0482435606    -0.3400034767
 H     -0.4628899731     3.1116440213    -3.6033105270
 F     -0.7157100819     2.3077517850    -3.2417468881
          14
Energy: -49.3689443488806 Kcal/mole
 H      1.0872877572     4.6573506222    -1.3563512339
 F      1.6382986732     4.9319159802    -2.0359760088
 H      0.6895582644     4.8014514707    -3.3891394196
 F      0.0710620977     4.6046902837    -4.0369330033
 H     -2.6905498989     1.4693451129    -0.6367029268
 F     -2.3839171869     1.0239118351     0.1038742635
 H     -2.2214055307     2.3251148283    -2.5328699876
 F     -2.9907753253     2.3143585650    -2.0340279063
 H     -0.7615319451     1.3140072742     0.3099291070
 F      0.1125888156     1.5906586768     0.3262354569
 H      0.0465838844     3.1826516610    -0.0699346557
 F     -0.0901994976     4.0482782722    -0.3398788653
 H     -0.4644318018     3.1118247737    -3.6039825891
 F     -0.7156282914     2.3077421965    -3.2417112367
          14
Energy: -49.368301088340885 Kcal/mole
 H      1.0872281411     4.6572252659    -1.3564502340
 F      1.6383018357     4.9319226301    -2.0359707571
 H      0.6899319026     4.7993524938    -3.3888623719
 F      0.0710422770     4.6048016296    -4.0369477000
 H     -2.6908960010     1.4681327614    -0.6372874421
 F     -2.3838988270     1.0239761476     0.1039052707
 H     -2.2207459612     2.3281836063    -2.5317748906
 F     -2.9908103139     2.3141957734    -2.0340859987
 H     -0.7618683525     1.3152497864     0.3071798690
 F      0.1126066613     1.5905927644     0.3263812976
 H      0.0437247486     3.1829083143    -0.0676888074
 F     -0.0900478271     4.0482646573    -0.3399980023
 H     -0.4661364091     3.1115551585    -3.6057540892
 F     -0.7155378660     2.3077564990    -3.2416172627
          14
Energy: -49.368815337303175 Kcal/mole
 H      1.0863858337     4.6580856827    -1.3567867098
 F      1.6383465181     4.9318769870    -2.0359529078
 H      0.6927623597     4.7996749174    -3.3916751295
 F      0.0708921278     4.6047845258    -4.0367984898
 H     -2.6904805483     1.4679800186    -0.6375508619
 F     -2.3839208658     1.0239842502     0.1039192445
 H     -2.2203530765     2.3253125634    -2.5312384920