          14
Energy: -49.3636230539519 Kcal/mole
 H      1.0763600803     4.6323008739    -1.3417652406
 F      1.6237445541     4.8956150680    -2.0287331242
 H      0.6588639689     4.7941935968    -3.3746526457
 F      0.0317775542     4.6150072994    -4.0192795915
 H     -2.7012391062     1.4826456299    -0.6104382809
 F     -2.4106386328     1.0277399741     0.1308452068
 H     -2.2164269802     2.3215781935    -2.5101706248
 F     -2.9849587060     2.3281802230    -2.0099662669
 H     -0.7961072855     1.3295095154     0.3684692905
 F      0.0762705522     1.6098800136     0.4036586642
 H      0.0203800168     3.1962701607    -0.0240548524
 F     -0.1102577358     4.0556679933    -0.3160448230
 H     -0.4798112174     3.1088732134    -3.5958441406
 F     -0.7122884557     2.3016911089    -3.2280121357
          14
Energy: -49.35797135991854 Kcal/mole
 H      1.0668628742     4.6455857944    -1.3444505601
 F      1.6242483589     4.8949103337    -2.0285906742
 H      0.6599560532     4.7887165203    -3.3742181872
 F      0.0317196216     4.6152978457    -4.0193026385
 H     -2.7088870064     1.4780158217    -0.6102245108
 F     -2.4102329293     1.0279855747     0.1308338668
 H     -2.2152634244     2.3251219273    -2.5084117686
 F     -2.9850204299     2.3279922361    -2.0100595702
 H     -0.7940833014     1.3233181924     0.3682575482
 F      0.0761631845     1.6102084489     0.4036698967
 H      0.0195663032     3.1973083871    -0.0206589713
 F     -0.1102145701     4.0556129178    -0.3162249667
 H     -0.4815069715     3.1068042177    -3.6014017051
 F     -0.7121984999     2.3018008644    -3.2277173197
          14
Energy: -49.35724576389177 Kcal/mole
 H      1.0854159101     4.6280282736    -1.3447017213
 F      1.6323149272     4.8933248052    -2.0312934598
 H      0.6596190434     4.8002587971    -3.3771085510
 F      0.0317374992     4.6146855545    -4.0191493114
 H     -2.7084624927     1.4817441014    -0.6081183270
 F     -2.4102554488     1.0277877981     0.1307221386
 H     -2.2111161473     2.3339729561    -2.5019112577
 F     -2.9852404334     2.3275227095    -2.0104044073
 H     -0.7972726581     1.3323672011     0.3754665363
 F      0.0763323725     1.6097284199     0.4032874765
 H      0.0308945252     3.1974932011    -0.0186670924
 F     -0.0952536917     4.0566641511    -0.3132870273
 H     -0.4728586934     3.1001271978    -3.5910997959
 F     -0.7147797132     2.2969086917    -3.2206902231
          14
Energy: -49.35316304074421 Kcal/mole
 H      1.0760758384     4.6322685284    -1.3506105212
 F      1.6328103964     4.8930998695    -2.0309800116
 H      0.6693354976     4.7997178535    -3.3866060069
 F      0.0312220638     4.6147142504    -4.0186454933
 H     -2.7091356845     1.4717046284    -0.6139189137
 F     -2.4102197375     1.0283203690     0.1310298464
 H     -2.2091098922     2.3402752585    -2.4986101599
 F     -2.9853468606     2.3271883869    -2.0105795229
 H     -0.7962259897     1.3307969519     0.3618375299
 F      0.0762768492     1.6098117180     0.4040104638
 H      0.0295664221     3.1968880048    -0.0198697004
 F     -0.0951832389     4.0566962554    -0.3132232318
 H     -0.4703399966     3.1008461608    -3.5878711783
 F     -0.7149133242     2.2968705524    -3.2208614938
          14
Energy: -49.34951669114079 Kcal/mole
 H      1.0867322509     4.6319185466    -1.3421678718
 F      1.6322450984     4.8931184352    -2.0314278746
 H      0.6596558428     4.8008227488    -3.3773078359
 F      0.0317355471     4.6146556382    -4.0191387398
 H     -2.7030351439     1.4594261482    -0.6338588592
 F     -2.4111178344     1.0144161988     0.1128937299
 H     -2.2090111104     2.3277987083    -2.4986196569
 F     -2.9853521007     2.3278502391    -2.0105790191
 H     -0.7979358675     1.3360535080     0.3628292136
 F      0.0763675542     1.6095328699     0.4039578573
 H      0.0330782029     3.1971982925    -0.0204766255
 F     -0.0953695308     4.0566797953    -0.3131910358
 H     -0.4709304618     3.0966165956    -3.5973742706
 F     -0.7148820014     2.2970949210    -3.2203573767
          14
Energy: -49.35538653269549 Kcal/mole
 H      1.0855935268     4.6356435002    -1.3416692943
 F      1.6323055050     4.8929208350    -2.0314543230
 H      0.6667305653     4.7932887846    -3.3821508156
 F      0.0313602494     4.6150552976    -4.0188818309
 H     -2.7020303476     1.4625450499    -0.6323839079
 F     -2.4111711365     1.0142507483     0.1128154872
 H     -2.2118954075     2.3292332935    -2.5031743700
 F     -2.9851990954     2.3277741377    -2.0103374021
 H     -0.7848668976     1.3197225819     0.3500862926
 F      0.0850561525     1.6075901691     0.3855142347
 H      0.0336697881     3.1952822781    -0.0264331657
 F     -0.0954009130     4.0567814354    -0.3128750551
 H     -0.4789997890     3.1049534547    -3.5844964064
 F     -0.7144539422     2.2966526699    -3.2210405177
          14
Energy: -49.35362581230612 Kcal/mole
 H      1.0772025043     4.6282611948    -1.3512385854
 F      1.6327506294     4.8933124493    -2.0309466942
 H      0.6809324404     4.7908966480    -3.3819417359
 F      0.0574112346     4.5951244081    -4.0252018202
 H     -2.7104536662     1.4745035273    -0.6216699842
 F     -2.4107242989     1.0136163787     0.1122471383
 H     -2.2111835910     2.3330050116    -2.5074139420
 F     -2.9850152338     2.3414353156    -2.0154764270
 H     -0.8049079010     1.3432693724     0.3522290420
 F      0.0711216921     1.6117680993     0.3892369553
 H      0.0298513304     3.1980229174    -0.0166851322
 F     -0.0951983526     4.0566360509    -0.3133921657
 H     -0.4695952078     3.1013469514    -3.5862729973
 F     -0.7149528335     2.2968439866    -3.2209462736
          14
Energy: -49.359272693711944 Kcal/mole
 H      1.0882588808     4.6268223364    -1.3429129132
 F      1.6321641142     4.8933887774    -2.0313883519
 H      0.6873394618     4.7799896186    -3.3849711529
 F      0.0570713569     4.5957030008    -4.0250411166
 H     -2.7038323952     1.4711019526    -0.6264540462
 F     -2.4110755420     1.0137968244     0.1125009217
 H     -2.2143093798     2.3352291596    -2.5110405986
 F     -2.9854714307     2.3382773942    -2.0148664361
 H     -0.7830162454     1.3034669048     0.3464661851
 F      0.0887637364     1.5872637085     0.3651219497
 H      0.0473136465     3.1848351730    -0.0264378402
 F     -0.0781639695     4.0500604326    -0.3030777109
 H     -0.4734301074     3.1034693654    -3.5841404511
 F     -0.7147494010     2.2967313974    -3.2210594003
          14
Energy: -49.35600714728422 Kcal/mole
 H      1.0894217475     4.6721666991    -1.3337979763
 F      1.6242824854     4.9423429988    -2.0279289136
 H      0.6746606498     4.8007751774    -3.3789880828
 F      0.0577439386     4.5946003749    -4.0253585047
 H     -2.6898569299     1.4853296166    -0.6259820042
 F     -2.3986440210     1.0281420420     0.1136554498
 H     -2.2123990050     2.3394989508    -2.5080650797
 F     -2.9855727716     2.3380508917    -2.0150242805
 H     -0.7847992293     1.3099007177     0.3361646979
 F      0.0888583195     1.5869224096     0.3656684197
 H      0.0469598760     3.1829498247    -0.0322452300
 F     -0.0781452028     4.0501604459    -0.3027696423
 H     -0.4749591657     3.1022006126    -3.5879490396
 F     -0.7146682879     2.2967987018    -3.2208573634
          14
Energy: -49.35808052138634 Kcal/mole
 H      1.0894446592     4.6642980115    -1.3368973003
 F      1.6242812700     4.9427604145    -2.0277645016
 H      0.6777514584     4.7963598233    -3.3805553339
 F      0.0575799783     4.5948345993    -4.0252753656
 H     -2.6920237401     1.4854563934    -0.6284245465
 F     -2.3988488184     1.0254797525     0.1087043127
 H     -2.2159248208     2.3305003579    -2.5134894300
 F     -2.9853857353     2.3385282462    -2.0147365312
 H     -0.7861817968     1.3134474047     0.3456772292
 F      0.0889316615     1.5867342660     0.3651638019
 H      0.0486190849     3.1824148098    -0.0347457004
 F     -0.0782332200     4.0501888272    -0.3026369982
 H     -0.4656483511     3.1020709698    -3.5819780559
 F     -0.7151622051     2.2968055791    -3.2211741103
          14
Energy: -49.35543199270836 Kcal/mole
 H      1.0766390186     4.6630458851    -1.3392914926
 F      1.6134567164     4.9493607484    -2.0253961190
 H      0.6702454030     4.7982749900    -3.3740176331
 F      0.0579781572     4.5947330041    -4.0256221755
 H     -2.7099824875     1.4724269389    -0.6290604985
 F     -2.3978961483     1.0261709350     0.1087380485
 H     -2.2223359710     2.3187688394    -2.5293454999
 F     -2.9947371250     2.3245958289    -2.0351274271
 H     -0.7844981929     1.3244160113     0.3485793172
 F      0.0901186328     1.5978773113     0.3825399655
 H      0.0469486357     3.1788082662    -0.0334593329
 F     -0.0888279694     4.0432676251    -0.3076193782
 H     -0.4737237493     3.1021540063    -3.5872416632
 F     -0.7147338239     2.2968011742    -3.2208948881
          14
Energy: -49.360714944856596 Kcal/mole
 H      1.0703796602     4.6696659426    -1.3414937384
 F      1.6137887609     4.9490095697    -2.0252792950
 H      0.6722470457     4.8000414205    -3.3764607995
 F      0.0578719747     4.5946392990    -4.0254925712
 H     -2.7023547896     1.4771460844    -0.6293751388
 F     -2.3983007801     1.0259205952     0.1087547394
 H     -2.2133741008     2.3384402546    -2.5130199778
 F     -2.9867074191     2.3340638643    -2.0202467785
 H     -0.7820504706     1.3171204582     0.3453653069
 F      0.0899887867     1.5982643235     0.3827104613
 H      0.0256413342     3.1821268963    -0.0316185644
 F     -0.1037639952     4.0415252996    -0.3241551347
 H     -0.4639952217     3.1017040381    -3.5816494344
 F     -0.7152498998     2.2968250440    -3.2211915429
          14
Energy: -49.35916898610229 Kcal/mole
 H      1.0726539851     4.6692520649    -1.3398615624
 F      1.6136681132     4.9490315249    -2.0253658781
 H      0.6694752102     4.7988364502    -3.3734702964
 F      0.0580190142     4.5947032199    -4.0256512105
 H     -2.6930445157     1.4802632832    -0.6271772944
 F     -2.3984076408     1.0252008970     0.1124147124
 H     -2.2133048102     2.3317842981    -2.5129229979
 F     -2.9867110948     2.3344169474    -2.0202519231
 H     -0.7706762129     1.3123700774     0.3539481991
 F      0.1010038286     1.5958777679     0.3801454262
 H      0.0299307614     3.1841559988    -0.0276242708
 F     -0.1039915394     4.0414176604    -0.3243670228
 H     -0.4645031631     3.1009768568    -3.5836204161
 F     -0.7152229547     2.2968636192    -3.2210869869
          14
Energy: -49.35966881616011 Kcal/mole
 H      1.0635564391     4.6636780365    -1.3494749169
 F      1.6141507170     4.9493272142    -2.0248559119
 H      0.6714436846     4.7992664111    -3.3754568935
 F      0.0579145912     4.5946804115    -4.0255458261
 H     -2.6948189742     1.4771256014    -0.6283906707
 F     -2.3983135099     1.0253673438     0.1124790792
 H     -2.2134870966     2.3344920984    -2.5132156618
 F     -2.9867014250     2.3342733049    -2.0202363979
 H     -0.7719280288     1.3174295415     0.3435613684
 F      0.1010702346     1.5956093750     0.3806964236
 H      0.0267737191     3.1846733794    -0.0477891862
 F     -0.1095338027     4.0459247006    -0.3316120555
 H     -0.4529812822     3.0997405016    -3.5853443177
 F     -0.7004670541     2.3022391130    -3.2063570780
          14
Energy: -49.361503368300774 Kcal/mole
 H      1.0606833823     4.6694230849    -1.3494194612
 F      1.6143031261     4.9490224527    -2.0248588537
 H      0.6798023610     4.8039940453    -3.3845411273
 F      0.0622197795     4.5954584820    -4.0295168429
 H     -2.6955496043     1.4772001257    -0.6280523561
 F     -2.3982747517     1.0253633905     0.1124611324
 H     -2.2224894773     2.3340937527    -2.5212672276
 F     -2.9907898308     2.3439730526    -2.0207615171
 H     -0.7786800358     1.3205173518     0.3458039458
 F      0.0929032554     1.6044758488     0.3702812510
 H      0.0262452265     3.1849202677    -0.0467886882
 F     -0.1095057674     4.0459116038    -0.3316651296
 H     -0.4603494007     3.0961597016    -3.5859912327
 F     -0.7082659918     2.2919062149    -3.2218447060
          14
Energy: -49.36032330549014 Kcal/mole
 H      1.0599532266     4.6682030263    -1.3505255039
 F      1.6143418591     4.9490871740    -2.0248001807
 H      0.6748456990     4.8032352749    -3.3795901910
 F      0.0624827189     4.5954987330    -4.0297794787
 H     -2.6974289766     1.4856228594    -0.6220803084
 F     -2.3981750553     1.0249165839     0.1121443291
 H     -2.2201833700     2.3413125984    -2.5177966457
 F     -2.9909121645     2.3435901095    -2.0209456235
 H     -0.7803253003     1.3259296705     0.3425207277
 F      0.0929905329     1.6041887378     0.3704554182
 H      0.0294684718     3.1834513884    -0.0528553023
 F     -0.1096767531     4.0459895244    -0.3313433098
 H     -0.4647717745     3.0942813770    -3.5930451924
 F     -0.7080313951     2.2920058557    -3.2214705097
          14
Energy: -49.362986379634876 Kcal/mole
 H      1.0602790281     4.6674127402    -1.3505874148
 F      1.6143245761     4.9491290968    -2.0247968965
 H      0.6798250970     4.8043649188    -3.3846829388
 F      0.0622185734     4.5954388080    -4.0295093202
 H     -2.6922063349     1.4829404820    -0.6258571141
 F     -2.3984521044     1.0250588778     0.1123446799
 H     -2.2152663346     2.3344134662    -2.5053988240
 F     -2.9857469710     2.3386118055    -2.0081755714
 H     -0.7802238472     1.3255959721     0.3426757561
 F      0.0929851510     1.6042064397     0.3704471943
 H      0.0195973409     3.1888087016    -0.0570188097
 F     -0.1260253172     4.0459050802    -0.3486844387
 H     -0.4595713742     3.0959840979    -3.5858484291
 F     -0.7083072643     2.2919155302    -3.2218522814
          14
Energy: -49.36134826104767 Kcal/mole
 H      1.0592519708     4.6708798986    -1.3560877626
 F      1.6139847294     4.9559376837    -2.0283247934
 H      0.6810397567     4.8103995720    -3.3878406564
 F      0.0621541385     4.5951186836    -4.0293418105
 H     -2.7006491300     1.4820229029    -0.6230093718
 F     -2.3980042336     1.0251075533     0.1121936138
 H     -2.2215014729     2.3369340096    -2.5156854694
 F     -2.9897614607     2.3487939465    -2.0151608117
 H     -0.7806903000     1.3270898741     0.3424029190
 F      0.0930098953     1.6041271916     0.3704616676
 H      0.0194259255     3.1880702028    -0.0591123472
 F     -0.1260162240     4.0459442558    -0.3485733814
 H     -0.4577423532     3.0962607088    -3.5839775248
 F     -0.7084042896     2.2919008567    -3.2219515285
          14
Energy: -49.359799485482895 Kcal/mole
 H      1.0690158757     4.6751161792    -1.3463964691
 F      1.6134667768     4.9557129589    -2.0288388941
 H      0.6699043040     4.8046286325    -3.3911172986
 F      0.0552368115     4.5973069982    -4.0392612746
 H     -2.6984971643     1.4666124755    -0.6293530258
 F     -2.3962760252     1.0219358485     0.1134888689
 H     -2.2136026981     2.3217518693    -2.5118007496
 F     -2.9891992677     2.3188074019    -2.0225867971
 H     -0.7783932874     1.3202479793     0.3438477179
 F      0.0951881193     1.5984849146     0.3619787332
 H      0.0198076856     3.1891992448    -0.0559784786
 F     -0.1260364755     4.0458843628    -0.3487396259
 H     -0.4676710436     3.0964034204    -3.5903327933
 F     -0.7078775955     2.2918932862    -3.2216143962
          14
Energy: -49.36104844525414 Kcal/mole
 H      1.0518906559     4.6783569089    -1.3622436020
 F      1.6025498334     4.9621672663    -2.0383465167
 H      0.6622186871     4.8062740959    -3.3857033215
 F      0.0489590334     4.5970474319    -4.0345683308
 H     -2.6968779771     1.4716223884    -0.6198853158
 F     -2.4014758539     1.0280375564     0.1263445969
 H     -2.2202552891     2.3172983238    -2.5221893947
 F     -2.9888463631     2.3190436522    -2.0220357035
 H     -0.7798351706     1.3247444797     0.3450033738
 F      0.0952646079     1.5982463856     0.3619174284
 H      0.0229621365     3.1882981534    -0.0602387188
 F     -0.1262038118     4.0459321636    -0.3485136300
 H     -0.4715406108     3.0951400310    -3.5955477791
 F     -0.7076723239     2.2919603060    -3.2213377533
          14
Energy: -49.357555671393044 Kcal/mole
 H      1.0487176052     4.6735475371    -1.3541385476
 F      1.6020541022     4.9683953964    -2.0232965715
 H      0.6626318259     4.8143527103    -3.3887594170
 F      0.0489371174     4.5966188801    -4.0344062120
 H     -2.6960126738     1.4779911842    -0.6164043246
 F     -2.4015217562     1.0276997065     0.1261599383
 H     -2.2130311936     2.3210544868    -2.5108971338
 F     -2.9892295847     2.3188443964    -2.0226347318
 H     -0.7795216778     1.3236999396     0.3457275387
 F      0.0952479778     1.5983017961     0.3618790131
 H      0.0322976010     3.1913834626    -0.0560982026
 F     -0.1266990366     4.0457684951    -0.3487332748
 H     -0.4635605626     3.0956230270    -3.5893312836
 F     -0.7080956470     2.2919346842    -3.2216675240
          14
Energy: -49.35806576711289 Kcal/mole
 H      1.0564304483     4.6817368567    -1.3443275807
 F      1.6016449536     4.9679609719    -2.0238170207
 H      0.6664135710     4.8055549633    -3.3887632129
 F      0.0551804218     4.5910418419    -4.0378141802
 H     -2.6990753009     1.4661838456    -0.6222202193
 F     -2.4013592909     1.0283260585     0.1264684581
 H     -2.2166139983     2.3277252200    -2.5164672937
 F     -2.9890395252     2.3184905295    -2.0223392477
 H     -0.7786069161     1.3209468213     0.3434367341
 F      0.0951994518     1.5984478426     0.3620005350
 H      0.0156513898     3.1835629046    -0.0708892058
 F     -0.1258159936     4.0461833576    -0.3479486463
 H     -0.4691308053     3.0996021995    -3.5842335522
 F     -0.7078001585     2.2917235983    -3.2219379469
          14
Energy: -49.357571149213214 Kcal/mole
 H      1.0569867133     4.6825660440    -1.3580099052
 F      1.6056456469     4.9789634885    -2.0303274860
 H      0.6672640010     4.8078446207    -3.3903276546
 F      0.0551353085     4.5909203808    -4.0377311902
 H     -2.7029817288     1.4650520002    -0.6152532349
 F     -2.4051959803     1.0212555117     0.1299026715
 H     -2.2162631621     2.3271514783    -2.5159287950
 F     -2.9890581363     2.3185209651    -2.0223678138
 H     -0.7786483886     1.3208661322     0.3469442159
 F      0.0952016518     1.5984521230     0.3618144712
 H      0.0250063584     3.1822104655    -0.0610417778
 F     -0.1261329273     4.0365415215    -0.3579666220
 H     -0.4577549838     3.0903212759    -3.5968889166
 F     -0.7084036196     2.2922159299    -3.2212666090
          14
Energy: -49.36054351931452 Kcal/mole
 H      1.0591441826     4.6876107973    -1.3540610188
 F      1.6055311982     4.9786958760    -2.0305369653
 H      0.6647770174     4.8098160970    -3.3886472449
 F      0.0552672372     4.5908157986    -4.0378203320
 H     -2.6849168580     1.4671061466    -0.6285575458
 F     -2.3910999386     1.0204309127     0.1164537651
 H     -2.2206478999     2.3192300925    -2.5227949878
 F     -2.9888255360     2.3189411763    -2.0220035782
 H     -0.7779733927     1.3191591570     0.3406601073
 F      0.0951658448     1.5985426741     0.3621478286
 H      0.0191775282     3.1787151324    -0.0683073272
 F     -0.1258237213     4.0367269409    -0.3575812014
 H     -0.4650234652     3.0962898327    -3.5888426318
 F     -0.7080180434     2.2918993117    -3.2216934459
          14
Energy: -49.36199700446093 Kcal/mole
 H      1.0666510675     4.6836695309    -1.3519661970
 F      1.6095635301     4.9765563776    -2.0304589037
 H      0.6677265076     4.8050162014    -3.3898241342
 F      0.0551107736     4.5910704220    -4.0377579008
 H     -2.6919304125     1.4671862261    -0.6257030067
 F     -2.3907278857     1.0204266647     0.1163023384
 H     -2.2171720244     2.3233244255    -2.5173999557
 F     -2.9890099232     2.3187239814    -2.0222897722
 H     -0.7783745760     1.3210343684     0.3338177246
 F      0.0951871267     1.5984431985     0.3625108012
 H      0.0301646609     3.1811851756    -0.0627633786
 F     -0.1156247447     4.0404790738    -0.3478045085
 H     -0.4677788872     3.0957527644    -3.5918189468
 F     -0.7078718747     2.2919278020    -3.2215355592
          14
Energy: -49.358511743752786 Kcal/mole
 H      1.0642925322     4.6834028589    -1.3539760583
 F      1.6096886449     4.9765705239    -2.0303522852
 H      0.6687809816     4.8084819350    -3.3919799459
 F      0.0550548362     4.5908865728    -4.0376435399
 H     -2.6961260550     1.4671374246    -0.6240147356
 F     -2.3905053166     1.0204292535     0.1162127795
 H     -2.2196929360     2.3183228875    -2.5213265747
 F     -2.9888761947     2.3189893015    -2.0220814741
 H     -0.7790385303     1.3188603532     0.3396713246
 F      0.0945930276     1.5967368648     0.3606843035
 H      0.0350639401     3.1801262441    -0.0549801983
 F     -0.1038322853     4.0395829163    -0.3429577447
 H     -0.4631394012     3.0924418423    -3.5959279585
 F     -0.7081179887     2.2921034387    -3.2213175856
          14
Energy: -49.3558956041218 Kcal/mole
 H      1.0717278297     4.6872060479    -1.3464307683
 F      1.6092942196     4.9763687735    -2.0307525454
 H      0.6669198389     4.8015827232    -3.3879407030
 F      0.0551535655     4.5912525600    -4.0378578124
 H     -2.7036697890     1.4500548695    -0.6327879141
 F     -2.3908784168     0.9991312461     0.1018674087
 H     -2.2147404787     2.3283658222    -2.5135131419
 F     -2.9891389111     2.3184565470    -2.0224959587
 H     -0.7781441191     1.3173432890     0.3267854860
 F      0.0945455812     1.5968173415     0.3613678674
 H      0.0405393693     3.1806555929    -0.0560988823
 F     -0.1041227441     4.0395548356    -0.3428984011
 H     -0.4658308687     3.0922979883    -3.5979792717
 F     -0.7079752126     2.2921110698    -3.2212087682
          14
Energy: -49.357194526128026 Kcal/mole
 H      1.0603363647     4.6840329538    -1.3569122109
 F      1.6098985105     4.9765370988    -2.0301965291
 H      0.6708851389     4.7959351138    -3.3898871691
 F      0.0549432155     4.5915521527    -4.0377545569
 H     -2.6937251847     1.4556480936    -0.6334952711
 F     -2.3914059551     0.9988345385     0.1019049324
 H     -2.2196232898     2.3192634719    -2.5248195870
 F     -2.9865165003     2.3182396540    -2.0220644224
 H     -0.7751186185     1.3082272644     0.3255353353
 F      0.0943850853     1.5973009256     0.3614341850
 H      0.0147945021     3.1869597041    -0.0655906924
 F     -0.1279404055     4.0426822083    -0.3626676888
 H     -0.4675813319     3.0894062376    -3.6132898629
 F     -0.7221746595     2.2872053963    -3.2492224957
          14
Energy: -49.357285494382864 Kcal/mole
 H      1.0600679843     4.6865550601    -1.3560411849
 F      1.6099127474     4.9764033069    -2.0302427350
 H      0.6621912021     4.8230228547    -3.3836622571
 F      0.0443693442     4.6035034560    -4.0247522551
 H     -2.6875225044     1.4562480771    -0.6356413642
 F     -2.3917349929     0.9988027108     0.1020187777
 H     -2.2190299839     2.3226591209    -2.5238943136
 F     -2.9865479738     2.3180595227    -2.0221135060
 H     -0.7756544548     1.3088395239     0.3348718238
 F      0.0944135102     1.5972684466     0.3609389059
 H      0.0165350656     3.1854991569    -0.0706892621
 F     -0.1280327384     4.0427596870    -0.3623972215
 H     -0.4624108560     3.0908304027    -3.6064263461
 F     -0.7224489412     2.2871298477    -3.2495865894
          14
Energy: -49.358201079515524 Kcal/mole
 H      1.0570898783     4.6946909931    -1.3503866594
 F      1.6025977740     4.9852613186    -2.0277927573
 H      0.6591757241     4.8161193475    -3.3784611811
 F      0.0445293084     4.6038696711    -4.0250281602
 H     -2.6878545142     1.4527227891    -0.6376824496
 F     -2.3917173806     0.9989897191     0.1021270525
 H     -2.2177758054     2.3096551502    -2.5313140952
 F     -2.9827029854     2.3082903414    -2.0255735031
 H     -0.7737264990     1.3033303113     0.3323008348
 F      0.0943112366     1.5975606976     0.3610752909
 H      0.0195045353     3.1857856078    -0.0713359116
 F     -0.1281902619     4.0427444914    -0.3623629182
 H     -0.4697584507     3.0933896078    -3.6059270033
 F     -0.7220591683     2.2869940878    -3.2496130784
          14
Energy: -49.35796442327208 Kcal/mole
 H      1.0585717539     4.6828205247    -1.3544089099
 F      1.6025191640     4.9858910195    -2.0275793862
 H      0.6530599328     4.8240200846    -3.3753301849
 F      0.0448537370     4.6034505553    -4.0251942523
 H     -2.6963821165     1.4536987031    -0.6336061526
 F     -2.3912650110     0.9989379492     0.1019108144
 H     -2.2151229981     2.3152965826    -2.5279804325
 F     -2.9817511832     2.3139717252    -2.0248219379
 H     -0.7756573368     1.3089344513     0.3339355490
 F      0.0944136631     1.5972634109     0.3609885731
 H      0.0115556279     3.1783661588    -0.0779491144
 F     -0.1346961040     4.0350944385    -0.3703804493
 H     -0.4762669050     3.0956968658    -3.6052426972
 F     -0.7217139099     2.2868716931    -3.2496493792
          14
Energy: -49.357572768398896 Kcal/mole
 H      1.0518046438     4.6863123871    -1.3583624894
 F      1.6028781435     4.9857057843    -2.0273696580
 H      0.6591774588     4.8218286531    -3.3803665345
 F      0.0445292163     4.6035668057    -4.0249270856
 H     -2.6859810031     1.4581421966    -0.6350803942
 F     -2.3918167660     0.9987022321     0.1019890195
 H     -2.2141601747     2.3169277445    -2.5265031111
 F     -2.9818022587     2.3138851958    -2.0249003064
 H     -0.7765546793     1.3118795261     0.3316898630
 F      0.0944612651     1.5971071815     0.3611077016
 H      0.0139817957     3.1813718297    -0.0704840644
 F     -0.1348248065     4.0349349946    -0.3707764530
 H     -0.4680579240     3.0924045226    -3.6069450521
 F     -0.7221493773     2.2870463442    -3.2495590732
          14
Energy: -49.35786998948515 Kcal/mole
 H      1.0516769048     4.6851215898    -1.3512058665
 F      1.6050921857     4.9702485288    -2.0244986375
 H      0.6635480445     4.8127681806    -3.3815500323
 F      0.0442973669     4.6040474428    -4.0248643037
 H     -2.6962362388     1.4535059656    -0.6337857697
 F     -2.3912727495     0.9989481734     0.1019203427
 H     -2.2130931049     2.3258613599    -2.5247276236
 F     -2.9818588643     2.3134112882    -2.0249944919
 H     -0.7766689084     1.3129295458     0.3255795102
 F      0.0944673246     1.5970514804     0.3614318417
 H      0.0205397305     3.1822416089    -0.0713394976
 F     -0.1351726898     4.0348888548    -0.3707310742
 H     -0.4721677494     3.0941240050    -3.6059615579
 F     -0.7219313606     2.2869551297    -3.2496112453
          14
Energy: -49.35899764930842 Kcal/mole
 H      1.0588380355     4.6740854469    -1.3501296069
 F      1.6047123042     4.9708339707    -2.0245557306
 H      0.6585348796     4.8173979017    -3.3782733822
 F      0.0445633037     4.6038018468    -4.0250381224
 H     -2.6951818810     1.4462366295    -0.6326474145
 F     -2.3957633541     0.9936086539     0.1065179672
 H     -2.2125712595     2.3152149853    -2.5240699149
 F     -2.9818865470     2.3139760537    -2.0250293819
 H     -0.7741823823     1.3042527703     0.3370536526
 F      0.0943354202     1.5975117633     0.3608231649
 H      0.0131870401     3.1808406920    -0.0716037595
 F     -0.1347826466     4.0349631702    -0.3707170557
 H     -0.4693485808     3.0967256759    -3.5979766265
 F     -0.7220809110     2.2868171170    -3.2500348275
          14
Energy: -49.355094950357284 Kcal/mole
 H      1.0520836192     4.6882070083    -1.3495746039
 F      1.6050706104     4.9700848545    -2.0245851723
 H      0.6620852168     4.8115201045    -3.3797426891
 F      0.0443749665     4.6041136504    -4.0249601791
 H     -2.6926880174     1.4477647898    -0.6327157540
 F     -2.3958956478     0.9935275886     0.1065215924
 H     -2.2124182215     2.3112643623    -2.5238272473
 F     -2.9818946653     2.3141856252    -2.0250422548
 H     -0.7768871990     1.3063189755     0.3395509098
 F      0.0918830139     1.5986901325     0.3649757765
 H      0.0109352660     3.1853630845    -0.0673115008
 F     -0.1367334972     4.0409806066    -0.3622718240
 H     -0.4902275154     3.1046235832    -3.5939800347
 F     -0.7209733317     2.2863981513    -3.2502468375
          14
Energy: -49.356578634695026 Kcal/mole
 H      1.0527982062     4.6849133378    -1.3503739582
 F      1.6050327032     4.9702595761    -2.0245427684
 H      0.6616026543     4.8100751193    -3.3788187964
 F      0.0444005653     4.6041903035    -4.0250091895
 H     -2.6838488314     1.4682097007    -0.6325445364
 F     -2.3865168617     1.0091184958     0.1034703856
 H     -2.2149498182     2.3167163542    -2.5314799466
 F     -2.9760909237     2.3276962824    -2.0201750878
 H     -0.7769953786     1.3079783222     0.3273207491
 F      0.0918887525     1.5986021080     0.3656245582
 H      0.0127157007     3.1856510427    -0.0673733643
 F     -0.1368279452     4.0409653311    -0.3622685423
 H     -0.4798534272     3.0956955709    -3.6032745278
 F     -0.7237323992     2.2820596932    -3.2577188803
          14
Energy: -49.35674286371291 Kcal/mole
 H      1.0571287711     4.6810972188    -1.3484706917
 F      1.6048029768     4.9704620124    -2.0246437322
 H      0.6578936802     4.8172091202    -3.3776030775
 F      0.0445973178     4.6038118612    -4.0250736806
 H     -2.6822136981     1.4714998086    -0.6311418128
 F     -2.3866036018     1.0089439632     0.1033959744
 H     -2.2130423294     2.3163891744    -2.5286211123