          14
Energy: -49.29007123541939 Kcal/mole
 H      1.5505424413     4.1074406470    -1.3718291436
 F      2.1270307292     4.1031039731    -2.0849430526
 H      1.1519322948     3.9130566604    -3.3986170249
 F      0.5093825306     3.6987124787    -4.0167394822
 H     -2.9832588970     1.8536563290    -0.4465277528
 F     -2.8129826620     1.5983528652     0.4175990580
 H     -2.1964360763     2.0803168978    -2.4211523564
 F     -2.9956583131     2.3176954876    -2.0393353565
 H     -1.1881017296     1.6509265788     0.7272887042
 F     -0.2831864098     1.7568088845     0.8312415848
 H      0.1107432742     3.2094085647     0.1554017783
 F      0.2495725009     4.0027564663    -0.2830210232
 H     -0.2533330708     2.3775554009    -3.3774951269
 F     -0.6547348389     1.6883024972    -2.9250616452
          14
Energy: -49.29849690798105 Kcal/mole
 H      1.5071320890     4.0864776447    -1.3777028388
 F      2.1005751653     4.1142935295    -2.0762302840
 H      1.1519063667     3.9309454342    -3.4338546769
 F      0.5227980509     3.7541677661    -4.0771752682
 H     -2.9292061268     1.8462994231    -0.4625734301
 F     -2.7843796582     1.5742698807     0.4010898272
 H     -2.1825209368     2.1174141327    -2.4393561958
 F     -2.9837425264     2.3167517802    -2.0403606237
 H     -1.1638697269     1.6220080310     0.7525793232
 F     -0.2537557254     1.7213644497     0.8046351233
 H      0.0859432198     3.1593112919     0.0877022597
 F      0.1867053407     3.9587749989    -0.3500120035
 H     -0.2414452543     2.4813932724    -3.4140426681
 F     -0.6132525709     1.7870461924    -2.9444359690
          14
Energy: -49.26468396605121 Kcal/mole
 H      1.5372561405     4.1237526219    -1.3628713810
 F      2.1297155276     4.1263579935    -2.0627814371
 H      1.2166083351     3.9194191848    -3.4546141526
 F      0.5985442665     3.7184727049    -4.1015347964
 H     -2.9527289766     1.8863562310    -0.4376025234
 F     -2.7820619653     1.6579715731     0.4339490926
 H     -2.2050405026     2.1469394671    -2.4382026593
 F     -3.0119176573     2.3221288169    -2.0392703980
 H     -1.1709614031     1.6997410558     0.7689768620
 F     -0.2600821786     1.7926404223     0.8195510260
 H      0.1107200799     3.2476241766     0.1573144916
 F      0.2334787381     4.0387883457    -0.2897633196
 H     -0.2068159292     2.4800028001    -3.4207476246
 F     -0.6036282965     1.8227375870    -2.9193182828
          14
Energy: -49.289726361181096 Kcal/mole
 H      1.5227434538     4.1461620761    -1.3265508823
 F      2.1054094217     4.1240643955    -2.0342945240
 H      1.1339968075     4.0501660854    -3.3948799939
 F      0.4934035266     3.8859042533    -4.0301337219
 H     -2.9253236130     1.8331794123    -0.4525543334
 F     -2.7507915173     1.5751265576     0.4099050985
 H     -2.1675277587     2.1172219792    -2.4334798327
 F     -2.9979489528     2.2627658384    -2.0727768725
 H     -1.1175848716     1.6777377669     0.7365139980
 F     -0.2103317558     1.7913557030     0.8063119104
 H      0.1684914496     3.2921283418     0.1911000988
 F      0.2915450611     4.1040316018    -0.2170174150
 H     -0.2250693283     2.5652200700    -3.3633446636
 F     -0.5738215310     1.8704456008    -2.8769812828
          14
Energy: -49.31298706966581 Kcal/mole
 H      1.5231359444     4.1442727284    -1.3301088884
 F      2.1266360999     4.1225147543    -2.0201836328
 H      1.2315141567     3.9712471667    -3.4211105591
 F      0.6221871678     3.8114671836    -4.0875038195
 H     -2.8367943794     1.9682446583    -0.4553653113
 F     -2.6840577287     1.6735079760     0.3994392299
 H     -2.1319407891     2.2730471880    -2.4470899534
 F     -2.9071493302     2.4998007977    -2.0128970030
 H     -1.0483433354     1.7005157260     0.7796424098
 F     -0.1424345527     1.8096632585     0.8707746955
 H      0.1920215288     3.2794532303     0.1877602661
 F      0.2622538637     4.0867835318    -0.2413949547
 H     -0.2124246134     2.5316140450    -3.5032444303
 F     -0.6456023992     1.8507110880    -3.0677938946
          14
Energy: -49.26677930225992 Kcal/mole
 H      1.4980958936     4.2187748890    -1.3263587212
 F      2.1011953752     4.1934406693    -2.0166616928
 H      1.2160116897     4.0786846699    -3.4371681256
 F      0.6202084644     3.8805055294    -4.1054738528
 H     -2.8263396123     1.9440091211    -0.5232242300
 F     -2.6702424937     1.6526419388     0.3321282439
 H     -2.1675907734     2.2749384867    -2.5248223261
 F     -2.9364724869     2.4732693019    -2.0661560003
 H     -1.0512096309     1.6741488344     0.6708377409
 F     -0.1440918857     1.7799746897     0.7534651253
 H      0.1437623856     3.2819063045     0.1472524878
 F      0.2229593147     4.0982650468    -0.2628392704
 H     -0.2020265923     2.5711361040    -3.5199320285
 F     -0.6312555763     1.8866246879    -3.0862321316
          14
Energy: -49.30922634238513 Kcal/mole
 H      1.4227426678     4.2193480215    -1.3665155555
 F      2.0672908853     4.2130052310    -2.0187473889
 H      1.2153052966     4.0428566130    -3.4444180684
 F      0.6142771684     3.8719040158    -4.1155584402
 H     -2.8312059722     1.8585594490    -0.5082565955
 F     -2.6700653922     1.5440214836     0.3379044895
 H     -2.0879119215     2.2460056831    -2.4853040900
 F     -2.8665217551     2.4734568745    -2.0576106455
 H     -1.0527389300     1.6952739873     0.7277656634
 F     -0.1570574451     1.8488598480     0.8504647307
 H      0.0797010385     3.2905118637     0.1193692844
 F      0.1267728577     4.0827949649    -0.3399353328
 H     -0.1830178371     2.5399051534    -3.5546473329
 F     -0.5825006220     1.8462259379    -3.1073089256
          14
Energy: -49.263576542875725 Kcal/mole
 H      1.4546031503     4.1949062313    -1.3627719342
 F      2.0586730307     4.2279264649    -2.0519005462
 H      1.1347057188     4.1319688352    -3.4141273299
 F      0.5264396226     3.9571668040    -4.0777127473
 H     -2.8470349764     1.9605407127    -0.4077301053
 F     -2.7262965370     1.6376474158     0.4420058232
 H     -1.9879002078     2.3159184421    -2.4188826841
 F     -2.7523127565     2.5680416738    -1.9795692065
 H     -1.1160870107     1.7148083381     0.7973212755
 F     -0.2090435507     1.8241683772     0.8760711560
 H      0.0706263007     3.2595251524     0.1389636187
 F      0.1314162548     4.0328117596    -0.3501390337
 H     -0.1765784461     2.5818740858    -3.5114228588
 F     -0.5327216437     1.8713060484    -3.0541001203
          14
Energy: -49.301203887543096 Kcal/mole
 H      1.4671791369     4.2767027358    -1.3687459754
 F      2.0626591007     4.3695800018    -2.0598801347
 H      1.1269918636     4.1711808856    -3.4205523578
 F      0.4923651412     3.9894734338    -4.0570429902
 H     -2.8305686349     1.9182044599    -0.4032337305
 F     -2.7076699955     1.6063929827     0.4503226690
 H     -2.0147701899     2.2612375815    -2.3849544992
 F     -2.8088333653     2.4700258578    -1.9765917570
 H     -1.0907803748     1.6396216997     0.7649336091
 F     -0.1806259343     1.7419063543     0.8101635091
 H      0.1116483274     3.2124433730     0.1209918128
 F      0.1588597704     4.0093289352    -0.3302658524
 H     -0.1886778597     2.6161042283    -3.4565456606
 F     -0.5156004122     1.9076665222    -2.9747504123
          14
Energy: -49.31726729345935 Kcal/mole
 H      1.4584467111     4.1665391689    -1.3610719745
 F      2.0802652898     4.2325643281    -2.0317964586
 H      1.1812927923     4.1135829016    -3.4298291495
 F      0.5471099219     3.9451361926    -4.0703967050
 H     -2.8399113869     1.7985756127    -0.4611958434
 F     -2.6889564860     1.4561259697     0.3759599724
 H     -2.0800444236     2.2323877880    -2.4291815436
 F     -2.8800502310     2.4117713240    -2.0184489602
 H     -1.0831680769     1.6037137884     0.7658844939
 F     -0.1859043087     1.7575818775     0.8760268634
 H      0.0775428920     3.1998537235     0.1247731175
 F      0.1042246287     3.9755121932    -0.3636232618
 H     -0.2039648414     2.5967550331    -3.4954707619
 F     -0.5785074260     1.8912725377    -3.0450250926
          14
Energy: -49.302816930205864 Kcal/mole
 H      1.4536684832     4.1721679222    -1.3670866869
 F      2.0842346163     4.2373922316    -2.0296733916
 H      1.1947385270     4.0946110404    -3.4189221911
 F      0.5673015817     3.9363173893    -4.0686567520
 H     -2.8285198105     1.8180755512    -0.4390396230
 F     -2.6843885521     1.4458610220     0.3865338290
 H     -2.0767719807     2.2927445154    -2.4174114594
 F     -2.8383316820     2.5203548048    -1.9601266714
 H     -1.0647537979     1.5766842663     0.7614592227
 F     -0.1714843830     1.7654168558     0.8471257971
 H      0.0905575134     3.1919892401     0.0955905728
 F      0.1401353592     3.9795539515    -0.3714992071
 H     -0.2038655998     2.5866227390    -3.5013545741
 F     -0.5781212870     1.8807253059    -3.0513206926
          14
Energy: -49.30477185301328 Kcal/mole
 H      1.4367846004     4.1636648154    -1.3591349092
 F      2.0744328800     4.1585679934    -2.0181248134
 H      1.1901132412     4.0529611883    -3.4058697077
 F      0.5675469424     3.9385268177    -4.0693491561
 H     -2.8551271359     1.7897738860    -0.4805844024
 F     -2.6930853486     1.4297849382     0.3470866776
 H     -2.1272295473     2.2664193168    -2.4821664253
 F     -2.8863480958     2.4706393281    -2.0100200325
 H     -1.0888646170     1.5904921821     0.6883325816
 F     -0.1924488296     1.7720084405     0.7545110067
 H      0.0211400522     3.2337180730     0.0586144449
 F      0.0780078623     4.0373583722    -0.3793550994
 H     -0.2548369691     2.5968679105    -3.5509453032
 F     -0.6738758966     1.8824007921    -3.1574581827
          14
Energy: -49.29994496747172 Kcal/mole
 H      1.4028543941     4.2301778018    -1.3882229662
 F      2.0627411474     4.2457840337    -2.0247721932
 H      1.1922250694     4.0713816817    -3.4098345402
 F      0.5885456328     3.9056694362    -4.0799088566
 H     -2.8725209596     1.7552579631    -0.5036223037
 F     -2.6922983604     1.3919544097     0.3188248635
 H     -2.1507641057     2.2514624100    -2.4998539746
 F     -2.9117587723     2.4446950198    -2.0261058602
 H     -1.0621229097     1.5771721859     0.6355847341
 F     -0.1638141116     1.7526164835     0.6917060478
 H      0.0084108258     3.2443941472    -0.0144958657
 F      0.0351606729     4.0378991799    -0.4733239475
 H     -0.2325587319     2.5768283622    -3.5720985778
 F     -0.6589809406     1.8747056877    -3.1645733025
          14
Energy: -49.31244272279882 Kcal/mole
 H      1.4514114800     4.2628966908    -1.3668290942
 F      2.0841877064     4.2593148900    -2.0305085485
 H      1.2068875320     4.0807802686    -3.4341355194
 F      0.6016401849     3.9029278636    -4.0996677657
 H     -2.8548761815     1.8095160825    -0.5100504242
 F     -2.6665612088     1.4488196064     0.3117308869
 H     -2.1882121216     2.2641833384    -2.4824415046
 F     -2.9544772116     2.4678456230    -2.0217371680
 H     -1.0338675646     1.5899100064     0.6097726158
 F     -0.1335593174     1.7446267279     0.6897525889
 H      0.1157605738     3.2513834487     0.0648743110
 F      0.1284234357     4.0680989277    -0.3519043811
 H     -0.2575266423     2.6031256781    -3.5230852169
 F     -0.6845352666     1.9057294457    -3.1081260265
          14
Energy: -49.31883568101679 Kcal/mole
 H      1.4203702336     4.2570464255    -1.4147640942
 F      2.0728653372     4.2837413121    -2.0585237720
 H      1.1788617800     4.0846164072    -3.4360009197
 F      0.5745564324     3.8833819007    -4.0957044290
 H     -2.8004957883     1.7783160102    -0.5358195514
 F     -2.6000390891     1.4019375789     0.2759965536
 H     -2.1623381111     2.2829359072    -2.4983911461
 F     -2.9286563083     2.4758035488    -2.0331519672
 H     -0.9943039757     1.5913233779     0.6496880386
 F     -0.1092748964     1.7977602736     0.7721475701
 H      0.0798325879     3.2567463004     0.0274120359
 F      0.0635630867     4.0358716510    -0.4558973800
 H     -0.2594267309     2.5811011917    -3.5329390425
 F     -0.6907833052     1.8729489118    -3.1413514352
          14
Energy: -49.298396228172635 Kcal/mole
 H      1.3917744244     4.2433880157    -1.3654280412
 F      2.0325198163     4.2702829855    -2.0208752194
 H      1.1807728477     4.0873214367    -3.4582072917
 F      0.5930241262     3.8934393175    -4.1348535539
 H     -2.8314269727     1.8109112512    -0.4857613973
 F     -2.6320204621     1.4307472368     0.3245480286
 H     -2.1506814533     2.3512710359    -2.4710085730
 F     -2.9133446751     2.5466999102    -2.0008582086
 H     -1.0237303497     1.6199456513     0.7031158814
 F     -0.1331907107     1.8194187328     0.7927743508
 H      0.0453173106     3.2892191047     0.0923326463
 F      0.0668700229     4.0751509790    -0.3796160474
 H     -0.2530222647     2.5825189339    -3.5802848018
 F     -0.6978389217     1.8915543452    -3.1733510496
          14
Energy: -49.291925824521115 Kcal/mole
 H      1.3552992036     4.2907267847    -1.4035606112
 F      2.0185585825     4.3673913888    -2.0321292508
 H      1.1872180019     4.1120319897    -3.4728926525
 F      0.6037350809     3.9115833927    -4.1513151175
 H     -2.7709525394     1.8853110748    -0.4428945934
 F     -2.5734938012     1.4826506867     0.3569576796
 H     -2.1364874738     2.3878817865    -2.4330460759
 F     -2.8839219728     2.6098316524    -1.9503775284
 H     -0.9458324675     1.6276320291     0.7253658152
 F     -0.0497777335     1.8063971587     0.8029412113
 H      0.0602245898     3.2680958526     0.0640986179
 F      0.0237431375     4.0400404569    -0.4295202953
 H     -0.2305258360     2.6039057794    -3.5472233758
 F     -0.6653694785     1.9330018812    -3.0981265423
          14
Energy: -49.31194866031976 Kcal/mole
 H      1.3582501747     4.3462849784    -1.3938919589
 F      1.9861907736     4.4440267502    -2.0549714929
 H      1.1126856931     4.2130821287    -3.4325168022
 F      0.5260356303     4.0107274721    -4.1076340489
 H     -2.7806622432     1.8292563918    -0.4314750150
 F     -2.5531827334     1.4494503014     0.3715750496
 H     -2.1242657572     2.3392895195    -2.3952920450
 F     -2.8886649160     2.5211243176    -1.9225140504
 H     -0.9276394146     1.5675975108     0.6627863071
 F     -0.0292801189     1.7494454518     0.6905514338
 H      0.0650580014     3.2315312860     0.0113050998
 F      0.0312427741     4.0378683230    -0.4240868078
 H     -0.2619469119     2.6841287758    -3.5277217609
 F     -0.6363733272     1.9951044627    -3.0523909756
          14
Energy: -49.326486017037595 Kcal/mole
 H      1.3387922915     4.3293123317    -1.3988747479
 F      1.9586509042     4.4302306649    -2.0670661803
 H      1.0756165454     4.2515708933    -3.4400585743
 F      0.4570576508     4.0578186751    -4.0886986686
 H     -2.8056061838     1.7125047107    -0.4224842427
 F     -2.5756006658     1.3246048492     0.3759643525
 H     -2.2178316052     2.2842965838    -2.3978704648
 F     -2.9902488513     2.4059844884    -1.9188583022
 H     -0.9563212386     1.5357582483     0.6280745003
 F     -0.0608344156     1.7309194000     0.6581489854
 H      0.0596021996     3.2430278004     0.0226740627
 F      0.0311856466     4.0492021767    -0.4134043413
 H     -0.3122409502     2.7220514623    -3.5105947698
 F     -0.7004023087     2.0181085884    -3.0693644558
          14
Energy: -49.332741281822436 Kcal/mole
 H      1.3018281145     4.4452455302    -1.3630569584
 F      1.8935941880     4.5721985900    -2.0519581378
 H      0.9286883675     4.3988840301    -3.3982078168
 F      0.3001203623     4.1721580138    -4.0262098680
 H     -2.7703853287     1.6830722970    -0.4365964659
 F     -2.5274261445     1.3318982135     0.3749062130
 H     -2.1729065339     2.2642897512    -2.3918927354
 F     -2.9677661106     2.3733071267    -1.9478178936
 H     -0.9034005797     1.5215881032     0.6035969866
 F     -0.0088186026     1.7228770683     0.6133355069
 H      0.0963249280     3.2616717100     0.0471346359
 F      0.0453975574     4.1002246748    -0.3204579757
 H     -0.3203731601     2.7764772230    -3.4226347002
 F     -0.6162862688     2.0464732889    -2.9531470131
          14
Energy: -49.32767780311521 Kcal/mole
 H      1.3218584338     4.4601489292    -1.3649722712
 F      1.8896549919     4.6080256030    -2.0696910506
 H      0.9599635455     4.3609414448    -3.4260393848
 F      0.3490963151     4.1291099118    -4.0694555542
 H     -2.7654621448     1.6308335978    -0.4779812149
 F     -2.5136137670     1.2430825123     0.3139218665
 H     -2.1870031022     2.2767317424    -2.3842152532
 F     -2.9815413333     2.3677367119    -1.9355326317
 H     -0.8871974832     1.4642873066     0.5329077049
 F      0.0058934270     1.6723200395     0.5329980771
 H      0.0975184072     3.2268120258     0.0095382044
 F      0.0638863747     4.0763431909    -0.3340526657
 H     -0.3089396636     2.7678494406    -3.4391472763
 F     -0.6268775534     2.0591193982    -2.9518011721
          14
Energy: -49.30670156452598 Kcal/mole
 H      1.2863142973     4.4542383198    -1.3771616011
 F      1.8673351880     4.6037843178    -2.0706597763
 H      0.9326002700     4.4079478124    -3.4492406921
 F      0.3048707691     4.1936566406    -4.0824262631
 H     -2.7883666752     1.6006286118    -0.4902791466
 F     -2.5011919311     1.2198433709     0.2929336384
 H     -2.2126509331     2.2403862867    -2.4197072098
 F     -3.0179324368     2.2928457390    -1.9842089828
 H     -0.8696971388     1.4450398061     0.4972580769
 F      0.0206059492     1.6645658607     0.5048556253
 H      0.0894410418     3.2234179314    -0.0153846597
 F      0.0559026894     4.0776830997    -0.3470399041
 H     -0.3297658625     2.7926040586    -3.4588893994
 F     -0.6425958032     2.0851656226    -2.9663883462
          14
Energy: -49.33617888710717 Kcal/mole
 H      1.2910303133     4.4467193901    -1.3775993599
 F      1.8791278489     4.5736399331    -2.0696408792
 H      0.9323407855     4.3983281940    -3.4123852735
 F      0.3091238762     4.2156269923    -4.0597722944
 H     -2.7352842633     1.5812198954    -0.5903182370
 F     -2.4630970016     1.1378571056     0.1648191884
 H     -2.2335185660     2.2748890151    -2.4981443521
 F     -2.9990562630     2.3901959285    -2.0066717178
 H     -0.8399326053     1.4060798145     0.4699889883
 F      0.0372525123     1.6638577921     0.5405990715
 H      0.0982561898     3.2314457494     0.0339842475
 F      0.0628730739     4.0819900784    -0.3069136545
 H     -0.3850598710     2.8057566434    -3.5507549789
 F     -0.7229860610     2.0588925101    -3.1397940848
          14
Energy: -49.31995600389389 Kcal/mole
 H      1.2469488431     4.4877332944    -1.3610838976
 F      1.8302911425     4.6431363611    -2.0513379439
 H      0.9512270900     4.4111520596    -3.4450488613
 F      0.3522056827     4.2107456397    -4.1098041700
 H     -2.7437061677     1.5854711284    -0.5703733117
 F     -2.4752731023     1.1552309275     0.1936463601
 H     -2.2197334469     2.3017068434    -2.4925620842
 F     -2.9931083436     2.3822416530    -2.0064608463
 H     -0.8472958250     1.3987929437     0.4472828742
 F      0.0339423376     1.6502485754     0.4801213596
 H      0.0962261613     3.2518529773     0.0366817913
 F      0.0328963404     4.1035375437    -0.2972519342
 H     -0.3645693642     2.8161315085    -3.5724127627
 F     -0.7137273433     2.0780501112    -3.1550237876
          14
Energy: -49.3182686109474 Kcal/mole
 H      1.2690763074     4.4860809952    -1.3525126948
 F      1.8498139676     4.6542226538    -2.0419770904
 H      0.9424870272     4.4522865066    -3.4331937241
 F      0.3464047159     4.2436194192    -4.0980492910
 H     -2.7516502817     1.6070136759    -0.5533522616
 F     -2.4778680109     1.1919329597     0.2171282815
 H     -2.1909603419     2.2917840989    -2.5038955386
 F     -2.9653589640     2.3659265035    -2.0184074564
 H     -0.8481086752     1.4524589582     0.4717591940
 F      0.0372468967     1.6840925737     0.5299002248
 H      0.0948126605     3.2501038725     0.0399818333
 F      0.0259863379     4.0930793978    -0.3143403379
 H     -0.3650992854     2.8516372904    -3.5997911733
 F     -0.7051919624     2.1026832548    -3.1944594284
          14
Energy: -49.336310969959825 Kcal/mole
 H      1.2594812291     4.4981665800    -1.3587573766
 F      1.8433660813     4.6607543201    -2.0468945040
 H      0.9257342395     4.5160694315    -3.4034752065
 F      0.3204896467     4.3303803889    -4.0668661639
 H     -2.7487663410     1.5524429987    -0.5778383668
 F     -2.4783219485     1.1680488796     0.2095560653
 H     -2.2280896994     2.2656979540    -2.5109989235
 F     -3.0097141128     2.3051872861    -2.0330942583
 H     -0.8514714874     1.4249427264     0.4639629453
 F      0.0316289016     1.6670685731     0.5129300499
 H      0.0854289297     3.2437580619     0.0262356677
 F      0.0264841232     4.0934160284    -0.3136111356
 H     -0.3521657426     2.9209140875    -3.5275779124
 F     -0.6600412549     2.1623746088    -3.1143957151
          14
Energy: -49.301856019686525 Kcal/mole
 H      1.2873372905     4.5131625072    -1.3688318651
 F      1.8566682209     4.6940287742    -2.0645607528
 H      0.9159333198     4.5459759744    -3.4581630021
 F      0.2780860196     4.3375625902    -4.0831459482
 H     -2.7349429698     1.5928786117    -0.6019509294
 F     -2.4711951139     1.1446974182     0.1533368874
 H     -2.1852727099     2.3048028169    -2.5042228688
 F     -2.9732342323     2.3805073284    -2.0413249685
 H     -0.8497393276     1.4212246092     0.4526629466
 F      0.0315370146     1.6672658106     0.5135294888
 H      0.1067255814     3.2323067274     0.0400904797
 F      0.0789492656     4.0858767441    -0.2938791343
 H     -0.3466597474     2.9202461083    -3.5246514094
 F     -0.6603333352     2.1624100435    -3.1145509593
          14
Energy: -49.31371750890318 Kcal/mole
 H      1.2427708847     4.5158131441    -1.3597162367
 F      1.8207680774     4.7186456477    -2.0421143762
 H      0.8900841207     4.5604563479    -3.4082839519
 F      0.2658928154     4.3871431660    -4.0573114978
 H     -2.7564032540     1.5292755980    -0.6475520545
 F     -2.4697446166     1.1311170202     0.1271643920
 H     -2.2284306776     2.2509985468    -2.5537524476
 F     -3.0325375014     2.2762489350    -2.1136801424
 H     -0.8482615934     1.4094895647     0.4405663332
 F      0.0265880893     1.6771506767     0.5028925859
 H      0.0452747123     3.2151870077    -0.0245958331
 F     -0.0137244889     4.0667894016    -0.3595308374
 H     -0.3954328371     2.9635220412    -3.5516293199
 F     -0.6745578382     2.1953011288    -3.1359192485
          14
Energy: -49.313538185969676 Kcal/mole
 H      1.1876890183     4.5051671004    -1.4075914925
 F      1.7922129362     4.6966901681    -2.0699801604
 H      0.8978916459     4.5584705732    -3.4630327675
 F      0.2927859341     4.3650702781    -4.1243438920
 H     -2.7760665990     1.5299794605    -0.6321883084
 F     -2.4732958568     1.1270004360     0.1338578936
 H     -2.2371199214     2.3088738715    -2.5488753658
 F     -3.0294286280     2.3310365301    -2.0877411881
 H     -0.8405465217     1.4192732777     0.4016399942
 F      0.0402549343     1.6685539121     0.4558337247
 H      0.0178164875     3.2165746897    -0.0487275878
 F     -0.0690875686     4.0599301752    -0.3981388213
 H     -0.3566559089     2.9497705350    -3.6057986823
 F     -0.6776730612     2.2071137679    -3.1741762614
          14
Energy: -49.32235186974502 Kcal/mole
 H      1.2025904082     4.5621269190    -1.3736876021
 F      1.7694856469     4.7480953317    -2.0700600152
 H      0.8251773606     4.6149377604    -3.4181348772
 F      0.2101082947     4.4136690640    -4.0678039899
 H     -2.7436145182     1.5268326490    -0.6554364601
 F     -2.4563701251     1.1284607597     0.1189532973
 H     -2.2302837797     2.2947034164    -2.5569569242
 F     -3.0130026302     2.3288889995    -2.0804366759
 H     -0.8326074042     1.4057657584     0.3470940214
 F      0.0503384550     1.6507178106     0.3830676490
 H      0.0691250186     3.2447158304    -0.0499204627
 F     -0.0056837416     4.1220801357    -0.3058980498
 H     -0.3962974429     2.9774324906    -3.5783993212
 F     -0.6803325738     2.2010935576    -3.1815228851
          14
Energy: -49.32794135568908 Kcal/mole
 H      1.1730229265     4.6116711725    -1.3758407744
 F      1.7345355974     4.8364799565    -2.0650820465
 H      0.7904843902     4.6261420875    -3.4046241644
 F      0.1880607536     4.4139848484    -4.0626242161
 H     -2.7097099705     1.4488367429    -0.6791395860
 F     -2.4168518569     1.0362077201     0.0856220860
 H     -2.2156339931     2.2307017714    -2.5974391593
 F     -2.9850007304     2.2683675467    -2.0999001026
 H     -0.8227019384     1.3995486610     0.4066600506
 F      0.0431277444     1.6895243649     0.4911707099
 H      0.0621453554     3.2542902034    -4.559371E-40
 F     -0.0409867049     4.0994663785    -0.3409409018
 H     -0.4057934236     2.9471027504    -3.6182031708
 F     -0.6824447280     2.1487336175    -3.2618890069
          14
Energy: -49.32859148215847 Kcal/mole
 H      1.1835054690     4.5390104186    -1.3739425601
 F      1.7676931083     4.7037112713    -2.0613197719
 H      0.8352812276     4.5769111208    -3.4392916579
 F      0.1979843037     4.3984621206    -4.0740337985
 H     -2.7007370361     1.5205397683    -0.6441449418
 F     -2.4282889230     1.0910034448     0.1188488803
 H     -2.1817280990     2.2573949804    -2.5655040681
 F     -2.9554686896     2.3198855803    -2.0773346065
 H     -0.8193653985     1.3750597498     0.4150539884
 F      0.0477385512     1.6653529550     0.4839712973
 H      0.0604818487     3.2434560903    -0.0037187097
 F     -0.0486705986     4.0918264055    -0.3342373196
 H     -0.4016439010     2.9206919368    -3.6549160063
 F     -0.6973441187     2.1335700152    -3.2890069167
          14
Energy: -49.31224880431523 Kcal/mole
 H      1.2047768893     4.5344014898    -1.3624207684
 F      1.7768642803     4.6842221728    -2.0632479797
 H      0.8217419373     4.5733609317    -3.4250309947
 F      0.1987025318     4.3986504500    -4.0747902938
 H     -2.6985635477     1.4877581786    -0.6542551729
 F     -2.4127134249     1.0353312163     0.0903847073
 H     -2.1624044059     2.2933024212    -2.5553569230
 F     -2.9342955311     2.3543743544    -2.0640898778
 H     -0.8331255335     1.4223248907     0.4878206186
 F      0.0201808630     1.7399744480     0.5967056609
 H      0.0726103302     3.3095289542     0.0668970857
 F      0.0157346385     4.1542152672    -0.2854652113
 H     -0.3915569008     2.9241795070    -3.6441351033
 F     -0.6719762244     2.1331246788    -3.2746946321
          14
Energy: -49.302590194628976 Kcal/mole
 H      1.1658634679     4.5383714500    -1.3771802445
 F      1.7643550872     4.7270539924    -2.0458323812
 H      0.8854980508     4.5731593736    -3.4374921281
 F      0.2706469477     4.3887182655    -4.0923421863
 H     -2.7113657360     1.4405547386    -0.6986092034
 F     -2.4148467443     1.0063313104     0.0526667126
 H     -2.1651931614     2.2308419386    -2.5732150272
 F     -2.9500230158     2.2797733360    -2.1014769452
 H     -0.8545739166     1.4186554820     0.4623485609
 F     -0.0036181416     1.7283843251     0.6066791286
 H      0.0242872913     3.2740640751     0.0570577826
 F     -0.0512361159     4.1109359513    -0.3101351881
 H     -0.3323200798     2.9300469336    -3.6351891632
 F     -0.6241158574     2.1506125117    -3.2501875969
          14
Energy: -49.32695587508188 Kcal/mole
 H      1.1749473136     4.5534035249    -1.3651643503
 F      1.7638732102     4.7262565756    -2.0464697966
 H      0.8376955463     4.5949096971    -3.4010528206
 F      0.2260486677     4.4160197172    -4.0604278815
 H     -2.6655753680     1.4980482941    -0.6581893854
 F     -2.4103252618     1.0493412720     0.0997013664
 H     -2.1200522721     2.2573971508    -2.5574307827
 F     -2.9018877827     2.3150578292    -2.0817234351
 H     -0.8163908706     1.3973753376     0.4261411875
 F      0.0477404858     1.6943951524     0.5032464957
 H      0.0286511688     3.2481893858    -0.0277383336
 F     -0.0658344335     4.0967417456    -0.3622833434
 H     -0.3154413671     2.9397733753    -3.6192439636
 F     -0.5983419550     2.1521112352    -3.2444845603
          14
Energy: -49.30176270485683 Kcal/mole
 H      1.1896594753     4.5579870686    -1.3397042311
 F      1.7693022336     4.7072547792    -2.0344145472
 H      0.8457161262     4.5829024685    -3.4014586254
 F      0.2543098056     4.4046592932    -4.0792173836
 H     -2.6555966661     1.4612323762    -0.6904124447
 F     -2.3995687052     1.0215885959     0.0725108999
 H     -2.1353509037     2.2710258801    -2.5641271005
 F     -2.9138951883     2.3048048422    -2.0807879042
 H     -0.7929747776     1.3692689004     0.4160985893
 F      0.0573721287     1.7012559341     0.5031833084
 H      0.0429356601     3.2645917485     0.0145877178
 F     -0.0585208374     4.1125305102    -0.3194713120
 H     -0.3274301452     2.9424934133    -3.6212227549
 F     -0.6082636290     2.1643894336    -3.2255262156
          14
Energy: -49.32970297833708 Kcal/mole
 H      1.1563048945     4.5251564028    -1.3705925516
 F      1.7650115392     4.7120657181    -2.0304638485
 H      0.8655236074     4.5791570897    -3.4182933208
 F      0.2532590645     4.4048579769    -4.0783243419
 H     -2.6750327265     1.4425200095    -0.6809768999
 F     -2.3827026365     1.0223996171     0.0798982372
 H     -2.1508874912     2.2573271082    -2.5733977553