          14
Energy: -48.62575176010483 Kcal/mole
 H     -1.5340882331     3.4421081995    -0.5032111888
 F     -1.3832519945     2.5687986522    -0.7387273532
 H     -0.5968133744     2.4510324913    -2.2428924390
 F     -0.4247057642     2.4680147279    -3.1434364824
 H     -4.6022401662     2.7139254176    -0.7878971583
 F     -4.9080359125     2.4369426011     0.0310402513
 H     -3.6235726158     3.0653116263    -2.7931361463
 F     -3.9500033527     3.5558814783    -2.0905173348
 H     -4.4067816956     3.7541354457     1.0151841516
 F     -4.0093148180     4.4695503033     1.4288152223
 H     -2.5817858591     4.8850138419     0.5901020926
 F     -1.8215687370     4.9741965545     0.0851215276
 H     -1.9427200053     2.2496990432    -3.6626061405
 F     -2.8345115742     2.1327516596    -3.8412681321
          14
Energy: -48.74627101918364 Kcal/mole
 H     -0.4987875949     3.4545642939    -0.2410632144
 F     -0.2272732306     2.6213344837    -0.5110577205
 H     -0.3964039785     2.6797598368    -2.1087214188
 F     -0.6067873848     2.7245615532    -3.0001363774
 H     -4.7598578625     2.8574223144    -0.2590296537
 F     -4.6893751451     2.5291745845     0.5943018260
 H     -4.0345231006     2.8956898246    -2.2385922586
 F     -4.5754263412     3.5080142491    -1.8222132443
 H     -3.6765703137     3.4657140229     1.5082870598
 F     -3.0965247531     4.0433668922     1.9215101355
 H     -1.8508885161     4.5535562334     0.9590750218
 F     -1.2403927739     4.8212119446     0.3293573318
 H     -2.0904728112     2.0774262577    -2.9819283916
 F     -2.9381529408     1.7661497094    -2.8224470184
          14
Energy: -48.787051584772456 Kcal/mole
 H     -0.3641430232     3.1693488925     0.0755926617
 F      0.0451043329     2.3689076535    -0.1052371601
 H      0.0157128123     2.3308317053    -1.7719600091
 F     -0.1380169890     2.4637172264    -2.6661622158
 H     -4.1941650623     2.0051700855    -0.5491844073
 F     -4.0836055476     1.5469483068     0.2373894260
 H     -3.6207110037     2.6290960820    -2.4749022379
 F     -4.1862522971     2.9963202701    -1.8534535746
 H     -3.5317333004     2.7206363641     1.3475922422
 F     -3.1322906875     3.3831504450     1.8399434296
 H     -1.9576035768     4.1533253963     0.9662266007
 F     -1.2715226567     4.4548610111     0.4377776967
 H     -1.6540564052     1.9914482736    -3.1529955868
 F     -2.5187798235     1.7894686586    -3.3817894785
          14
Energy: -48.78097190076467 Kcal/mole
 H     -0.1594928912     2.8939263430     0.3698917654
 F      0.1746708227     2.2381856633    -0.1771253946
 H      0.2091937203     2.2861935617    -1.8570672445
 F      0.1393802843     2.3274158656    -2.7704761375
 H     -4.1119905331     2.2537245385    -0.5758591239
 F     -4.2018893915     1.7160150406     0.1614845484
 H     -3.1633438181     2.7552373934    -2.4148879524
 F     -3.5740685140     3.2920056998    -1.7951509038
 H     -3.5810032674     2.4627581869     1.5172769175
 F     -3.1270120783     2.9723833601     2.1297009397
 H     -1.7192319189     3.7661323865     1.6372667781
 F     -0.9597129164     4.0859573825     1.2351077836
 H     -1.3910525914     1.9381606867    -3.2089392419
 F     -2.2621776859     1.7004514170    -3.3687027323
          14
Energy: -48.962021038134026 Kcal/mole
 H      0.0746369626     2.9287483350     0.5109728895
 F      0.2580627090     2.4122430458    -0.2241912295
 H      0.1985156048     3.2118125871    -1.6927010146
 F      0.0664839231     3.5882684192    -2.5183750674
 H     -3.6693900168     2.2955957957    -0.4484615034
 F     -3.6632538070     1.7177177944     0.2635134699
 H     -3.0830140194     3.0783970546    -2.3596870138
 F     -3.5658741103     3.4149554604    -1.6565059759
 H     -3.2059662759     2.5342753365     1.6569381789
 F     -2.8488829182     2.9810886130     2.3736936265
 H     -1.3372284476     3.6502593504     2.0488859005
 F     -0.5347897524     3.9508596400     1.7223577910
 H     -1.2320659633     2.7920609786    -3.2228325414
 F     -2.0006600705     2.3345698740    -3.4249562349
          14
Energy: -48.916901883159454 Kcal/mole
 H     -0.0695786207     3.6364454763    -0.1342974775
 F      0.1176312150     2.9888983202    -0.7560081481
 H      0.1572638874     3.4511242435    -2.4204651625
 F      0.0183254273     3.5752137421    -3.3183442750
 H     -3.8016926191     2.6271727230    -0.6267099042
 F     -3.8197213467     2.1000140449     0.1234018828
 H     -3.2143254618     3.0856049509    -2.6923031339
 F     -3.6150024388     3.5483493638    -2.0095040650
 H     -3.0835225750     3.0179930411     1.2971527622
 F     -2.6407033532     3.5524480788     1.8964506426
 H     -1.2822992338     4.4293523873     1.3535336887
 F     -0.5481209452     4.7858434657     0.9354603081
 H     -1.3663440229     2.7138802376    -3.7183323232
 F     -2.1653791226     2.2660706299    -3.7619036994
          14
Energy: -48.97230000957495 Kcal/mole
 H      0.2409738512     3.1717063788     0.0113346893
 F      0.5813501616     2.5707396602    -0.5918833231
 H      0.8179694459     3.0530250303    -2.1703236760
 F      0.7622473787     3.2578898326    -3.0624080128
 H     -3.1021258001     2.1198867951    -0.5697583006
 F     -3.3146596595     1.5171468084     0.0878303755
 H     -2.3017067219     2.9160273248    -2.4268478054
 F     -2.5762664261     3.2928040716    -1.6371989898
 H     -2.4981231446     1.9670622649     1.5183026843
 F     -1.9956777148     2.3075586814     2.2056888788
 H     -0.9853355891     3.5832803304     1.6826616326
 F     -0.4066264632     4.1228321875     1.2191224852
 H     -0.6631158417     2.6412190138    -3.5930146772
 F     -1.4952971824     2.3028229814    -3.7770020177
          14
Energy: -48.86444062951378 Kcal/mole
 H      0.1488678055     2.6715211931    -0.0914327422
 F      0.2349604876     2.0605455804    -0.7698027377
 H      0.5785649803     2.8351166747    -2.1926931815
 F      0.6330875439     3.2234816696    -3.0216014519
 H     -3.2961070947     2.0864615408    -0.5853153553
 F     -3.3624133018     1.5283495084     0.1392558601
 H     -2.5519595320     2.9387236360    -2.5309963449
 F     -2.9345720742     3.2291518697    -1.7498765823
 H     -2.8118133125     2.5185790111     1.3523764437
 F     -2.4084373774     3.0947846144     1.9407334423
 H     -0.8543115777     3.6829933380     1.4203846223
 F     -0.0252643466     3.8090025933     1.0493167632
 H     -0.8294789279     2.7579908541    -3.6600273656
 F     -1.6972512001     2.5338180648    -3.8539522070
          14
Energy: -48.84980274416472 Kcal/mole
 H      0.3364692180     3.8150625041    -0.1569289032
 F      0.8656165653     3.2649965371    -0.6651803339
 H      0.5664801031     3.4695732900    -2.3013220733
 F      0.2802914621     3.5733263609    -3.1663193924
 H     -3.4599956686     1.9982019724    -0.7017709713
 F     -3.3825342055     1.4405435706     0.0220424223
 H     -2.6968159761     2.6000036244    -2.6316749776
 F     -3.2533211559     2.9843888653    -2.0124504857
 H     -2.5431312973     2.2345816503     1.2670988954
 F     -2.1098176995     2.7843698530     1.8594343225
 H     -1.2030452978     3.9961901888     1.1458833035
 F     -0.7587163921     4.6577311368     0.6922045651
 H     -0.8628217244     2.5043162674    -3.5281014685
 F     -1.5972915358     1.9655592726    -3.6338558858
          14
Energy: -49.16845445871681 Kcal/mole
 H      0.1595728013     3.5454620678    -0.4334889931
 F      0.4732260448     2.8761375607    -0.9761816750
 H      0.4482211317     3.2506732506    -2.6103379784
 F      0.3193724761     3.3933943258    -3.5069525660
 H     -3.3426950688     2.5871172336    -0.5612637888
 F     -3.5442955377     2.1258770320     0.2052241285
 H     -2.5858526285     3.0133713768    -2.5981123904
 F     -2.7555084897     3.5132334106    -1.8482831859
 H     -2.7487046050     2.8619985989     1.4345583773
 F     -2.2379838254     3.3355039925     2.0310866058
 H     -1.1389832884     4.2000748051     1.1662533164
 F     -0.5884367641     4.6368821565     0.5771974087
 H     -1.0921584206     2.5742051259    -3.9159772068
 F     -1.9359482076     2.2152476018    -3.9084081062
          14
Energy: -48.88991807136469 Kcal/mole
 H      0.2501766207     3.4059940290    -0.5721699056
 F      0.7200755253     2.7800311100    -1.0499297233
 H      0.7108312855     2.8321001501    -2.7398067046
 F      0.5259057285     2.7959540376    -3.6372391515
 H     -3.5589673786     2.3588975789    -0.7180664656
 F     -3.7216617591     1.9825766128     0.1021786618
 H     -2.6762315321     2.8167128773    -2.7231732968
 F     -3.0207986048     3.2913471664    -2.0182727194
 H     -2.7793108138     2.7385695892     1.2663543833
 F     -2.1963833271     3.1650913573     1.8313001564
 H     -1.0897262188     4.0653423620     0.9291908778
 F     -0.5474097152     4.4914716890     0.3248767156
 H     -1.0105890628     2.1655110790    -3.8395003320
 F     -1.8625986242     1.8333868586    -3.7712199577
          14
Energy: -49.0703282617027 Kcal/mole
 H      0.4276085179     2.8829671821    -0.4688467156
 F      0.4223734990     2.2031565711    -1.0842483144
 H      0.5682630286     2.7469454919    -2.6595610315
 F      0.4470174362     3.0082093727    -3.5301526067
 H     -3.1745247738     2.3758687837    -0.4977506616
 F     -3.2802874579     1.7909074482     0.2004781624
 H     -2.6218590530     2.9481237852    -2.4617851954
 F     -2.8709354853     3.4165976349    -1.7138666283
 H     -2.2163027503     2.2766300276     1.4061348882
 F     -1.6191039802     2.6417411961     1.9985337940
 H     -0.4459714154     3.6096474336     1.2424744045
 F      0.2101224267     3.9806914192     0.7202137118
 H     -1.1253004846     2.5251789070    -3.8151416329
 F     -1.9868312095     2.2142035031    -3.7710042523
          14
Energy: -48.900794061836876 Kcal/mole
 H      0.4972714784     2.7355517220    -0.7672897822
 F      0.5632671695     2.0028611639    -1.3147366882
 H      0.7543269095     2.4188548998    -2.9063317243
 F      0.7661269832     2.6925770728    -3.7814465341
 H     -2.7543728717     2.2430497357    -0.8481038977
 F     -2.8126235961     1.5920008161    -0.2049622667
 H     -2.2028982766     3.2719290163    -2.7387279548
 F     -2.4189781661     3.5171612315    -1.8819551483
 H     -1.9239516449     2.1361134887     1.1540912328
 F     -1.3663194543     2.5226166693     1.7709790924
 H     -0.3216868328     3.4997441456     0.9159402575
 F      0.2141097306     3.9357166939     0.3128324896
 H     -0.8644510858     2.8473919825    -4.2870718959
 F     -1.7810639369     2.8256526159    -4.2716679644
          14
Energy: -48.890274920390894 Kcal/mole
 H      0.8377817350     2.3184296000    -0.5966759271
 F      0.9318705791     1.7144330094    -1.2802140811
 H      0.7635168210     2.4095685221    -2.7697271412
 F      0.6297540770     2.8683673483    -3.5523510390
 H     -3.1533515391     2.5822962741    -0.5775831914
 F     -3.1391171539     1.8943743745     0.0285932205
 H     -2.5239205585     3.4775749537    -2.4971213479
 F     -2.8116372475     3.8142637772    -1.6941588687
 H     -2.2360569126     2.3015469695     1.3072023565
 F     -1.6286809711     2.5521557163     1.9468731481
 H     -0.3241188517     3.1410110552     1.1554344045
 F      0.3373047412     3.4302261613     0.5899589823
 H     -0.9716921574     2.7641398415    -3.8105208314
 F     -1.8859790947     2.7230715116    -3.8678077290
          14
Energy: -48.98247454186044 Kcal/mole
 H      1.2485679723     2.5315993683    -0.7979016785
 F      1.1301456884     2.0545900426    -1.5720639778
 H      1.0007789672     2.9100015202    -3.0338073637
 F      0.7465455110     3.3537745114    -3.7949380240
 H     -2.4532193862     2.0710514156    -0.5399824677
 F     -2.3934738391     1.4103277604     0.0930765510
 H     -2.2281003600     3.0350304724    -2.4912971588
 F     -2.3904536357     3.3476152243    -1.6446442271
 H     -1.4879834160     1.9980087807     1.3708489892
 F     -0.9248887268     2.4210281754     1.9581035870
 H      0.4514356645     3.0001550900     1.1583947407
 F      1.1511198310     3.3089704766     0.6524657692
 H     -0.8133449188     2.7524139442    -4.0451973529
 F     -1.6567882778     2.4014231136    -3.9658390706
          14
Energy: -48.897902989773286 Kcal/mole
 H      1.0767524606     2.7496374881    -0.9061098488
 F      1.3775619867     2.1144987596    -1.4951781170
 H      1.1287177041     2.7151626899    -3.0776137410
 F      0.8811454640     3.0357423580    -3.9003078897
 H     -2.2364388690     1.8757199363    -0.7562223381
 F     -2.2132207497     1.1692280391    -0.1720826988
 H     -1.9947367620     2.9001103640    -2.6619412945
 F     -2.0525068372     3.1504570557    -1.7816696590
 H     -1.2776864538     1.5598112051     1.1296585703
 F     -0.7061662783     1.9039466728     1.7588043950
 H      0.0868354871     3.1456068783     0.9202897008
 F      0.4518613887     3.7047995615     0.2918403121
 H     -0.7166138736     2.6529884454    -4.1870486469
 F     -1.6155041780     2.4758661920    -4.2259450224
          14
Energy: -49.067715633613346 Kcal/mole
 H      1.2785509330     2.6715487219    -0.8338227113
 F      1.4318011266     2.0616150204    -1.5011938657
 H      1.3066008305     2.8898018240    -2.9633478799
 F      1.0686620089     3.3040964589    -3.7460573232
 H     -2.2011533793     1.6844924150    -0.7362091358
 F     -2.0880883327     1.0306636829    -0.1032689458
 H     -2.0353460234     2.7692662634    -2.7012206277
 F     -2.2621614491     2.9463367429    -1.8305370985
 H     -1.2545915294     1.7050601306     1.1759989272
 F     -0.7520795391     2.1890270646     1.7711011927
 H      0.3364150797     3.1684677632     0.9670787166
 F      0.8770577715     3.6514031346     0.4055024467
 H     -0.5187863066     2.7584308116    -4.1528865012
 F     -1.3894807661     2.4804077789    -4.2269361569
          14
Energy: -48.990790893548535 Kcal/mole
 H      1.3606742583     2.3635765265    -0.9372843562
 F      1.3178359282     1.8262826858    -1.6791530819
 H      1.2872240874     2.4645497673    -3.2145598793
 F      1.1176473985     2.8848695988    -4.0117198293
 H     -2.1627120230     1.9537414444    -0.4630008187
 F     -2.3320591893     1.3883880983     0.2388439870
 H     -1.7233553042     2.9402129203    -2.4751621673
 F     -1.6924322467     3.1186624126    -1.5762247150
 H     -1.1390718077     1.6690664214     1.3524421982
 F     -0.4116345784     1.8808695218     1.8690305489
 H      0.6825449451     2.7886061896     1.0506846169
 F      1.2038452540     3.2639987578     0.4649057389
 H     -0.5754583068     2.6937621363    -4.2069058487
 F     -1.4813585382     2.6016344065    -4.0985257206
          14
Energy: -48.802127626991805 Kcal/mole
 H      1.2223027682     2.4681640891    -1.0157602478
 F      1.1766192340     1.9313192466    -1.7577842568
 H      1.1341918611     2.8485075676    -3.1776454257
 F      0.9368758497     3.3858823240    -3.8940138803
 H     -2.1632075525     1.7246513716    -0.7332296736
 F     -1.9974278493     1.0182496691    -0.1725134131
 H     -2.0863925981     3.0337940273    -2.4948679974
 F     -2.2543992384     3.1662502808    -1.6031740422
 H     -1.0552272482     1.4537534251     1.1257760937
 F     -0.4805825405     1.7501306440     1.7760322002
 H      0.6507503372     2.7705996474     1.0726627916
 F      1.0767945144     3.2960091414     0.4535341921
 H     -0.7219080331     3.1574616164    -4.1250711742
 F     -1.6115995447     2.9387090842    -4.0865310154
          14
Energy: -48.88277305703899 Kcal/mole
 H      1.0222261006     2.8573680095    -0.9965883400
 F      1.1078780983     2.3210768703    -1.7354689456
 H      0.8754619674     3.1838884479    -3.1122889916
 F      0.6573103953     3.5769052752    -3.9115615765
 H     -2.2268977351     2.0641784053    -0.7523041729
 F     -2.0490310577     1.4481114607    -0.0967784565
 H     -2.3327024341     3.0630213485    -2.7210758688
 F     -2.4826303800     3.2731156562    -1.8411491713
 H     -1.2585074326     1.9476291007     1.2957000478
 F     -0.6761403688     2.2985766409     1.9109832566
 H      0.3234118757     3.2326869878     1.0030679950
 F      0.7549344904     3.7359913972     0.3695366978
 H     -0.9021252696     3.0298286854    -4.2834323554
 F     -1.7651197302     2.7234574670    -4.2358273393
          14
Energy: -49.0160864964609 Kcal/mole
 H      1.1727372064     3.0929993802    -1.0203206156
 F      1.2260505541     2.5585931372    -1.7635948950
 H      0.9584594490     3.2092029556    -3.3110550644
 F      0.6599328866     3.6118524019    -4.0789380731
 H     -2.3347771590     2.3450108408    -0.9101036489
 F     -2.2756817231     1.5946438931    -0.3863229951
 H     -2.2135905337     3.3773951944    -2.7298163347
 F     -2.3716951416     3.6563982695    -1.8707184258
 H     -1.3150050751     1.9604533403     0.9171476249
 F     -0.6731545119     2.2522426104     1.5034716619
 H      0.4393604194     3.3252536888     0.8493051583
 F      0.9470545991     3.9045457900     0.3517548780
 H     -0.9005384623     3.1101526063    -4.2847995150
 F     -1.7731158668     2.8385685256    -4.2090383099
          14
Energy: -48.981042799618336 Kcal/mole
 H      0.6065733725     2.8933132571    -1.1582124260
 F      0.5668509372     2.2953698824    -1.8523124539
 H      0.6286722747     2.8501200071    -3.4191159826
 F      0.4182260096     3.1214472528    -4.2693999912
 H     -2.7354966169     2.0611050535    -0.9404943994
 F     -2.6368482020     1.3295284391    -0.3964786391
 H     -2.6170739695     3.1831675988    -2.7896655648
 F     -2.7680781922     3.3844349345    -1.9078616272
 H     -1.6538719162     1.7448609864     0.8882423849
 F     -1.1058412409     2.1704976933     1.4877294762
 H     -0.1111537676     3.2919624680     0.7353870990
 F      0.4509809924     3.7994073463     0.2182863284
 H     -1.1831794173     2.8749441702    -4.3808921554
 F     -2.0925361810     2.7847992099    -4.3045170131
          14
Energy: -49.03748598740995 Kcal/mole
 H      0.6939560492     2.9308982211    -1.1853630559
 F      0.5322185441     2.3977279333    -1.9136895099
 H      0.4024296883     3.3183588629    -3.2989030128
 F      0.1821742082     3.8088728908    -4.0417169275
 H     -2.4799410412     1.8843413886    -0.8806258093
 F     -2.3307368456     1.2348921087    -0.2506712547
 H     -2.7365871407     3.0021938718    -2.8375373997
 F     -2.7917865068     3.1365001114    -1.9321071903
 H     -1.3200948276     1.7669861751     0.9799517491
 F     -0.7690386654     2.1793200781     1.5859277045
 H      0.2555400525     3.1974028728     0.7832127001
 F      0.7985642230     3.7037713417     0.2450633491
 H     -1.3646870008     3.2552399459    -4.4080880661
 F     -2.2061365925     2.8908045930    -4.4142895381
          14
Energy: -49.036993835925585 Kcal/mole
 H      1.3876255630     3.1754961864    -1.3049483281
 F      1.6260921263     2.7904661171    -2.1023030447
 H      0.9264367002     3.5004657679    -3.4120071519
 F      0.4317613361     3.9008789527    -4.0721999764
 H     -2.5467830040     1.8925741136    -0.7509634223
 F     -2.4071870059     1.2008833011    -0.1653306216
 H     -2.2861541536     2.9543551938    -2.6175779897
 F     -2.5666683007     3.2147316457    -1.7842683734
 H     -1.0925060089     1.5632900835     0.8249858713
 F     -0.3351753090     1.8102133433     1.2792634457
 H      0.3696656895     3.1075735864     0.6011416560
 F      0.7330829941     3.7847118801     0.1008411525
 H     -0.9658369056     2.9809457457    -4.2404782890
 F     -1.6837135010     2.4298033609    -4.0928833517
          14
Energy: -48.980736033509544 Kcal/mole
 H      1.4549376552     3.6706462726    -1.2242836344
 F      1.7926814219     3.4402536375    -2.0450987060
 H      0.8988347233     4.0436501715    -3.3754506239
 F      0.3372210926     4.2433826591    -4.0722906796
 H     -2.7686919346     1.9134060994    -0.8083904556
 F     -2.5364975277     1.2751947828    -0.1922240229
 H     -2.4660820351     2.8763623366    -2.7907789017
 F     -2.8795641699     3.1123361445    -2.0070456012
 H     -1.1536212231     1.5657145747     0.6756040049
 F     -0.3861092993     1.7938755361     1.1225458607
 H      0.2999744275     3.2383300032     0.5673055796
 F      0.5698905703     4.0140359243     0.1594887091
 H     -0.8559792393     3.1151782803    -4.1945127615
 F     -1.5034592354     2.4727182312    -4.1001531308
          14
Energy: -49.117788375331884 Kcal/mole
 H      1.1923216101     3.0625452763    -1.5005382294
 F      1.5566164904     2.6607606087    -2.2399618705
 H      0.8224544887     3.2854969584    -3.6393564048
 F      0.2827923314     3.6237819254    -4.2990662176
 H     -2.9255051190     2.2461523958    -0.4913952512
 F     -2.8886080670     1.6292609228     0.1860798539
 H     -2.5528696340     3.0136934217    -2.5174298955
 F     -2.7700737604     3.3766720510    -1.7038219542
 H     -1.3370201484     1.6234504985     0.8743340804
 F     -0.4682886021     1.7424183694     1.1427388980
 H      0.1091133007     3.0192762819     0.3014912190
 F      0.3712900376     3.6960198098    -0.2590179745
 H     -1.2016630167     2.8269363294    -4.1673156783
 F     -1.9760322809     2.3943327449    -3.9347315402
          14
Energy: -48.98896608337628 Kcal/mole
 H      1.3962230571     3.6420724256    -1.4717344950
 F      1.7532356578     3.4337659320    -2.2902938439
 H      0.6724533249     4.0516341241    -3.3711639664
 F     -0.0294994671     4.3302351376    -3.8912915980
 H     -2.8346491192     2.1387997369    -0.4313655857
 F     -2.6023469675     1.5265778843     0.2105916664
 H     -2.6199879552     2.8900916558    -2.5189883216
 F     -2.9819108217     3.2173482733    -1.7425838233
 H     -0.9198569572     1.4905804212     0.5994332568
 F     -0.0105588711     1.5842085897     0.6722326835
 H      0.4413424662     3.1296644930     0.3248815717
 F      0.6284735841     3.9509890494    -0.0374675936
 H     -1.1414974097     3.0833287294    -3.9243593724
 F     -1.7280844620     2.3923281473    -3.7853528051
          14
Energy: -49.02830472550694 Kcal/mole
 H      1.3798117513     3.9272430469    -1.4995379938
 F      1.8270418466     3.8337709147    -2.2946085582
 H      0.6620205031     4.1670299805    -3.4601819406
 F     -0.0176485897     4.3459013101    -4.0492014409
 H     -3.0127628118     1.9849012405    -0.5640067503
 F     -2.7544256282     1.3280314682     0.0213760319
 H     -2.8244244844     3.0046954932    -2.4831821301
 F     -3.2907076204     3.1917578885    -1.7160597817
 H     -1.1087939121     1.4292901341     0.3604181555
 F     -0.2192436253     1.5821895669     0.5223164281
 H      0.1019372649     3.1260271098     0.0524565005
 F      0.2661828938     3.9716841328    -0.2618309044
 H     -1.2131828639     3.2155382504    -3.9201161529
 F     -1.8752825245     2.5958235899    -3.7842236251
          14
Energy: -49.05577797982579 Kcal/mole
 H      1.6057564380     4.3848987335    -1.3709915112
 F      2.0566879103     4.3784402348    -2.1694325517
 H      0.8283506817     4.5535553111    -3.2136694460
 F      0.0841681186     4.6755056200    -3.7354063863
 H     -2.8519974216     2.2482535877    -0.3030589321
 F     -2.5561918562     1.6920297988     0.3632766921
 H     -2.5241461509     2.9669038113    -2.2959741071
 F     -3.1262363850     3.1910843669    -1.6416657482
 H     -0.8926417290     1.6521035331     0.3800549208
 F      0.0201444317     1.7062267812     0.3109094310
 H      0.4452646302     3.2903073525     0.0882673501
 F      0.5877591352     4.1844360203    -0.0570538167
 H     -0.7807473823     3.2766415815    -3.5207180981
 F     -1.2259163654     2.5280304234    -3.2338472029
          14
Energy: -48.91992807808329 Kcal/mole
 H      1.7378799719     4.2594102681    -1.3654845558
 F      2.0818343432     4.4091705043    -2.2022379616
 H      0.8266056434     4.8400513447    -3.2112475385
 F      0.0366623969     5.0399398670    -3.6318699892
 H     -2.8543555436     2.2694165275    -0.3954875532
 F     -2.5825584610     1.9525155962     0.4209615546
 H     -2.4909030003     2.8313386384    -2.4823966726
 F     -3.1943282394     2.8449196753    -1.8942661698
 H     -0.9285775552     1.6008618419     0.3747387678
 F     -0.0319516863     1.5320994855     0.1952316943
 H      0.5416305465     3.0828512997     0.1179527174
 F      0.7524571808     3.9725420143     0.0480130106
 H     -0.7454949800     3.6364747808    -3.5202835980
 F     -1.0868132629     2.7964158359    -3.3835656446
          14
Energy: -49.05323733465998 Kcal/mole
 H      1.4470658654     4.5456184555    -1.2767791933
 F      1.8793482979     4.7273213420    -2.0648178723
 H      0.7238146151     4.7909300312    -3.2668478088
 F     -0.0017321991     4.7638508788    -3.8269705989
 H     -3.0102922834     2.0552199647    -0.4069395287
 F     -2.7309669673     1.6921407749     0.3874406509
 H     -2.4107287937     2.6416332655    -2.3831729703
 F     -3.1987611805     2.7096731058    -1.9192068750
 H     -1.0759291680     1.6031854392     0.2499462556
 F     -0.1783413927     1.6561029680     0.0698770444
 H      0.3453266761     3.2175387060     0.0981579672
 F      0.5009301868     4.1190991091     0.0359857303
 H     -0.5952784320     3.2885096947    -3.4577635245
 F     -0.9583868348     2.4996903732    -3.1631360207
          14
Energy: -48.99153273063695 Kcal/mole
 H      1.4464174831     4.5872302777    -1.1197590534
 F      1.8846095398     4.6855232358    -1.9192684129
 H      0.8031592973     4.8122396867    -3.1902546655
 F      0.1164334959     4.7517690891    -3.7949363840
 H     -2.8257786828     2.0841564724    -0.4111157032
 F     -2.5692746646     1.4997785869     0.2473652574
 H     -2.4084352092     2.9401183118    -2.2838812011
 F     -3.0916928613     3.1232632261    -1.7003523491
 H     -0.8862250152     1.6424253977     0.4171427869
 F      0.0257484437     1.7381676998     0.4223217762
 H      0.4060144872     3.3439313238     0.3450378539
 F      0.5670770708     4.2386035047     0.2245823320
 H     -0.6264609762     3.2832713617    -3.4479820567
 F     -1.0529610061     2.5256908510    -3.1563341623
          14
Energy: -49.06641702788001 Kcal/mole
 H      1.3869972852     4.4370160776    -1.1307170410
 F      1.8418558919     4.4593687281    -1.9266397802
 H      0.7222798111     4.7416461404    -3.1490103641
 F      7.042151E-40     4.7933209815    -3.7125237802
 H     -2.8757439561     2.1914593281    -0.2345897681
 F     -2.5652670725     1.8020207180     0.5353652135
 H     -2.4197659891     2.7617127963    -2.2227538587
 F     -3.1301809713     2.9578580282    -1.6771105677
 H     -0.9321836919     1.7685822685     0.7554702496
 F     -0.0172815144     1.8194130758     0.7909559447
 H      0.3278232863     3.4264882341     0.4504683024
 F      0.3912111154     4.3076798531     0.2047605212
 H     -0.6877957413     3.3111290155    -3.4184512069
 F     -0.9872462636     2.5200061896    -3.0644129901
          14
Energy: -49.128109363538854 Kcal/mole
 H      1.4410711076     4.7236409444    -0.9914569447
 F      1.9555997052     4.8828507541    -1.7336170074
 H      0.8562792013     4.9865286449    -2.9645594338
 F      0.1400645602     4.9177133280    -3.5330574901
 H     -2.9422541276     2.1739520824    -0.0762520023
 F     -2.6177049950     1.6532448574     0.6052322942
 H     -2.4300780712     2.9738545163    -2.0270090250
 F     -3.1911960311     3.0447547345    -1.5204899136
 H     -0.9553365467     1.6240178009     0.4912873047
 F     -0.0577093634     1.7648518186     0.3675124316
 H      0.2608341453     3.3808458597     0.2594871197
 F      0.3505951593     4.2905051570     0.1863302807
 H     -0.6148182627     3.4883931250    -3.0876881002
 F     -0.9582789197     2.7203026022    -2.7230502995
          14
Energy: -49.09151604790891 Kcal/mole
 H      1.4217431930     4.6439355295    -0.8864451457
 F      1.9011200703     4.7712135003    -1.6577344090
 H      0.7968002525     4.9418103833    -2.9292940809
 F      0.0968392340     4.8819308912    -3.5186649481
 H     -2.9010679542     1.9807309159    -0.2514125685
 F     -2.5744133435     1.6372626667     0.5335812704
 H     -2.5764553447     2.6985753605    -2.2390116721
 F     -3.3232741753     2.6586686260    -1.7083911987
 H     -0.9261567758     1.6927958345     0.6067223949
 F     -0.0113960713     1.7524285689     0.6300845539
 H      0.2701169222     3.3819158528     0.4840954033
 F      0.3216875427     4.2837070841     0.3259750493
 H     -0.6225739266     3.4467532318    -3.1590538123
 F     -0.9958285618     2.6489434761    -2.9039664333
          14
Energy: -49.16560672097491 Kcal/mole
 H      1.4291892784     4.8700754095    -0.7583624176
 F      1.9902685427     5.1163775505    -1.4405752250
 H      1.0633179612     5.1239783415    -2.8352297718
 F      0.4446010215     4.9985560180    -3.5003219378
 H     -2.8941801031     2.1070970540    -0.3297591877
 F     -2.6486265315     1.6209353788     0.4079665534
 H     -2.2204645596     2.9705396413    -2.1123720464
 F     -3.0413941544     2.9757197400    -1.7037930859
 H     -0.9799553343     1.6921239949     0.6902905202
 F     -0.0774152099     1.8439097114     0.7474868506
 H      0.1446837346     3.4510765868     0.4461891780
 F      0.1719100813     4.3461511424     0.2487321802
 H     -0.3476475312     3.6072249099    -3.1197850463
 F     -0.7068057595     2.8269988587    -2.7986282682
          14
Energy: -49.12562592116119 Kcal/mole
 H      1.4517402123     4.8297848735    -0.6573571790
 F      2.0868446800     5.1122923583    -1.2554548600
 H      1.2664969039     5.1456025310    -2.6903895935
 F      0.6981692317     5.0775384995    -3.4068112184
 H     -2.7098462048     2.0429283584    -0.3621049910
 F     -2.4749480532     1.3361940220     0.1729075660
 H     -2.1886270878     3.2846270541    -2.0652928816