          14
Energy: -49.28838715903838 Kcal/mole
 H     -1.6912877198     2.4793894291    -2.7074052858
 F     -2.4251207046     2.9779617115    -2.4754487605
 H     -1.9522556350     4.5364152414    -2.2031627423
 F     -1.5817991041     5.3533719702    -2.0128139516
 H      2.9600076477     3.8113091535    -1.0420920468
 F      3.1752340599     2.9267429839    -1.1521342345
 H      1.5103364171     5.3073776366    -0.4872658477
 F      2.3586812458     5.3432780839    -0.8335478273
 H      1.8472010428     1.9618392321    -0.9031012698
 F      1.0493707199     1.5209341047    -0.8033092636
 H      0.2178223930     1.5829304086    -2.2179576097
 F     -0.2421127669     1.7266087290    -2.9981532191
 H     -0.6133486123     5.2217902226    -0.6779121869
 F     -0.0302191339     5.0615008512     0.0114036543
