          14
Energy: -46.39623508785671 Kcal/mole
 H      0.3673413980     1.5870233841    -0.3307795153
 F      0.0978530798     1.8598379982    -1.1637484419
 H     -1.1671001893     2.8537484996    -1.1466908036
 F     -1.8484392229     3.4428346038    -0.9745173937
 H     -1.0330808325     3.8216706522     4.1443730711
 F     -0.4502550730     3.2438514905     4.5534307082
 H     -2.1210240229     5.3352012111     2.6233859412
 F     -2.0728209275     5.1572180304     3.5216550818
 H      0.7628141991     3.3760058883     3.3926787483
 F      1.1786821838     3.4317457950     2.5773040602
 H      1.0407394203     2.0598354252     1.6876618297
 F      0.8928702289     1.3008416310     1.1947600925
 H     -1.5634105123     4.6718721124     0.2010318929
 F     -1.3254193419     5.2803718283     0.8444425693
          14
Energy: -44.84305829051918 Kcal/mole
 H      1.2906986733    -1.7259540287    -0.4885003569
 F      1.2049423220    -2.1963506884    -1.2709719735
 H      0.1887728650    -1.3823561034    -2.4659948556
 F     -0.4401906293    -0.9579072145    -2.9809094733
 H      0.0421864921     2.4432572076     1.0951325786
 F      0.5904508355     3.0959764373     1.4331456213
 H     -1.4029735675     1.4914594172    -0.6896362114
 F     -0.9745051558     1.4396734333     0.1194509484
 H      2.3003173893     2.3059910613     0.8934565906
 F      2.8918659349     1.6400612475     0.6755189820
 H      1.9172645074     0.1312369108     0.8774291025
 F      1.4112067656    -0.6331727151     0.8991658400
 H     -1.4684693391     0.5980449312    -2.7026436794
 F     -1.9234137945     1.2569951576    -2.2557665803
          14
Energy: -45.30402467986805 Kcal/mole
 H      3.9693927291    -3.0820475013    -1.4877321080
 F      3.3361573692    -3.5048861213    -0.9767433797
 H      2.8781269112    -2.6441305164     0.5309332918
 F      3.0546999392    -2.2220756788     1.3256537960
 H      2.7856596081     1.2381694272     1.8968426055
 F      3.5800435715     1.5139075285     1.5310399017
 H      1.1399772784     0.1542203456     2.8877492696
 F      1.1498827649     1.0311813313     2.6199241196
 H      3.7125434748     0.7609095577    -0.0858369639
 F      3.6397885033     0.3316631238    -0.8928953342
 H      4.5068952289    -0.9382488693    -1.5122520247
 F      4.9513859199    -1.6855700930    -1.8035045171
 H      2.0247498323    -1.7531743276     2.5331304451
 F      1.3614172922    -1.4952130030     3.1113474427
          14
Energy: -46.89582994563489 Kcal/mole
 H      3.7639407737    -2.0941188576    -2.1559906427
 F      3.4410662012    -2.9509684322    -2.1064950175
 H      3.8484339691    -3.6032867100    -0.6790127838
 F      4.0450297788    -3.9182094562     0.1594755891
 H      4.3082557319     0.9423345574     1.1449417769
 F      3.8121356507     1.5671431875     0.6928709409
 H      5.5222286254    -0.8755168093     1.3154012742
 F      5.1148918222    -0.2740725283     1.8750712713
 H      2.8899551878     1.2636324150    -0.6580438417
 F      2.4012824263     1.0397475804    -1.4009863112
 H      3.6214855056    -0.0207901242    -1.7258382634
 F      4.3677006012    -0.5463662887    -1.6373977384
 H      5.3889469803    -3.0086250784     0.5061899989
 F      6.0940617625    -2.4409250437     0.6525416800
          14
Energy: -47.007791908273916 Kcal/mole
 H      3.0937180889    -1.8574732500    -1.9146678163
 F      2.5689913728    -2.6087687398    -1.8814118322
 H      3.5893059460    -3.6018707702    -1.1480645193
 F      4.2560017231    -4.0571751719    -0.7132040329
 H      7.0103955756    -3.1906511529     1.2113470359
 F      7.3126931659    -3.0515900726     0.3568488307
 H      5.3796539752    -4.0663702345     2.4173329207
 F      6.0770835242    -3.5038657377     2.6124475414
 H      6.8362793817    -2.0366031975    -0.9209984242
 F      6.6852865654    -1.4632161662    -1.6205107413
 H      5.0862938964    -0.7909544498    -1.7720646291
 F      4.2185728784    -0.5286280428    -1.6337385976
 H      4.0953167991    -4.7878948167     0.7643811044
 F      4.2764078007    -4.9750227156     1.6436297602
          14
Energy: -46.37274315791569 Kcal/mole
 H      2.9031207205    -2.4422934756    -4.1187378013
 F      2.3891719541    -3.0538449042    -3.6684595365
 H      3.1813344814    -3.5374257870    -2.0782036476
 F      3.7756256952    -3.7102232526    -1.4015589927
 H      7.4047945931    -0.8813127394    -5.0086213942
 F      7.3299793858    -0.4630957604    -5.8212629162
 H      6.7140390117    -2.0065683677    -3.1793270523
 F      7.4048728558    -1.4380553464    -3.3804005326
 H      6.2845027931    -1.4732066523    -6.6693156905
 F      5.5121167267    -1.9070202562    -6.9062007293
 H      4.5928432371    -1.5188637515    -5.6264467574
 F      4.0445140031    -1.2881745572    -4.9285882139
 H      5.0141736829    -3.5223266816    -2.4471447381
 F      5.4679145112    -3.2817391546    -3.2068327679
          14
Energy: -45.90588203097664 Kcal/mole
 H      4.0282803478    -3.4283822373    -1.5062537198
 F      3.8321427850    -4.2934230535    -1.7388981755
 H      4.6681018397    -5.1288510444    -2.9660182619
 F      5.0729681346    -5.4098316172    -3.7393372136
 H      7.0243943015    -3.9030227957    -5.8563632295
 F      6.7846139851    -3.0363282888    -5.6768220595
 H      6.2628715878    -5.7549831049    -6.4737170178
 F      7.1424985892    -5.4986390000    -6.4358615244
 H      6.3065046640    -1.8896548522    -4.2974309390
 F      6.0293229064    -1.3759184588    -3.5902292765
 H      4.9717300900    -1.6405962705    -2.3592074537
 F      4.3610828146    -1.7995016407    -1.6938143455
 H      4.6604845452    -5.8160368512    -5.3897468900
 F      4.6660217091    -6.1540676297    -6.2421514492
          14
Energy: -46.85332840133897 Kcal/mole
 H      4.5719033442    -5.1339377153    -1.5608428772
 F      4.5068899708    -5.8720972110    -2.1010121286
 H      3.4895981576    -6.1174206741    -3.4016738370
 F      2.8896442116    -6.1154948245    -4.0951726140
 H      5.1575830538    -2.9948307968    -5.5401505526
 F      5.6908582335    -2.7739072699    -4.8276202880
 H      3.7697343290    -4.3029375469    -6.5693486858
 F      3.8441073826    -3.3896742946    -6.5331840493
 H      5.6878226803    -2.1639186311    -3.2249238262
 F      5.7786729071    -1.8889399443    -2.3548537382
 H      5.0779592913    -2.9221914997    -1.3372752987
 F      4.6306565128    -3.5439503085    -0.8330677938
 H      3.5119406558    -6.1856498591    -5.5403811303
 F      3.9813998358    -6.0175856026    -6.3099599007
          14
Energy: -46.542385901742705 Kcal/mole
 H      1.2550541101    -5.0778071329    -2.6903184346
 F      1.0885013931    -5.5237193405    -3.4740986944
 H      0.1943519661    -4.3143462654    -4.2197094421
 F     -0.1242531743    -3.5525749773    -4.6185631360
 H      4.2311255730    -2.6782276877    -5.2760228074
 F      4.8629223727    -2.1751399889    -4.8417135038
 H      2.2628986250    -3.7066464421    -6.5048865096
 F      3.0853503258    -3.7074461189    -6.0993479044
 H      4.3346621368    -2.3265691182    -3.1671846269
 F      3.9458046622    -2.4563910148    -2.3469254364
 H      2.5572881821    -3.4728085498    -1.9394321437
 F      1.8329655029    -3.9039155433    -1.5783332425
 H      0.1868585001    -3.6050908304    -6.3567330181
 F      0.7106127600    -3.6812040105    -7.1055836434
          14
Energy: -47.26130468426537 Kcal/mole
 H      1.1447609776    -0.2158387976    -3.5908740844
 F      0.4953759971     0.1705985888    -4.1103491016
 H      0.8367799340    -0.3303078376    -5.7182174146
 F      1.1275201531    -0.6404906604    -6.5307109477
 H      5.1666990077    -3.2829335689    -5.0132063132
 F      5.3909183265    -3.6195284129    -4.1902126266
 H      4.3288696095    -1.9113736795    -6.5655225381
 F      4.6681300929    -2.7630090485    -6.5429720896
 H      3.9888260680    -3.9067072592    -3.2141037014
 F      3.1599215057    -3.9070921325    -2.8219225207
 H      2.5103494511    -2.3115808885    -2.9441293663
 F      2.1743862334    -1.4583416007    -2.9447882354
 H      2.7175360436    -0.5312543974    -6.3995517862
 F      3.6057348613    -0.3890257359    -6.2213303840
          14
Energy: -46.19917220630474 Kcal/mole
 H      3.6115558702     0.4900743397    -2.0330664190
 F      3.4164045644     0.6625163738    -2.9123096804
 H      2.4949507403    -0.3593887101    -3.8438322359
 F      2.1037211462    -1.0646653537    -4.2801959153
 H      6.5129968814    -2.5197019285    -4.5129247465
 F      6.9843931022    -2.6093334138    -3.7314896565
 H      4.7605231041    -2.6510779548    -5.4854153136
 F      5.4778190297    -2.1953560780    -5.8299340011
 H      6.0136201570    -2.3914775066    -2.3199516997
 F      5.6039183133    -2.3732357149    -1.4997684053
 H      4.6192165715    -1.0625166435    -0.5712204820
 F      4.0462103107    -0.3465906592    -0.5728968326
 H      2.8968277524    -2.5751115328    -4.4771870924
 F      3.5314693808    -3.2334958319    -4.5453715345
          14
Energy: -47.403268954995056 Kcal/mole
 H      4.0433120705     2.7100776647     0.1625757516
 F      3.3637242008     2.8998670383    -0.4231112988
 H      2.4521944359     1.6088934528    -0.9694120862
 F      2.0036928611     0.9232689936    -1.3813033807
 H      5.8585017966     1.2995601885    -4.1541183348
 F      6.6193042716     0.9755210403    -3.7578012591
 H      3.4342756147     1.8045797224    -4.3028715153
 F      4.2827526481     2.1440775455    -4.3784820430
 H      6.2559410407     0.7587407512    -2.0908262857
 F      6.1777019505     0.6892775580    -1.1798144803
 H      5.7519460847     1.7040988241     0.2580011973
 F      5.4010747440     2.2189082403     0.9308678760
 H      1.9544897375     1.0137343067    -3.0432899288
 F      1.9990316179     1.0765474809    -3.9570511263
          14
Energy: -47.3951198864209 Kcal/mole
 H      2.1419244566     1.0820525618     1.2150102840
 F      2.4819785873     0.3483264408     1.6473274909
 H      2.8103595981    -0.6259803736     0.4563910342
 F      3.0709131222    -1.0672278252    -0.3040703701
 H      4.2733585799     4.1263961798    -1.6362345376
 F      3.9299210926     4.9766268039    -1.6431322345
 H      3.8745780470     1.8776719057    -2.0475192910
 F      4.4978343178     2.4585852490    -1.7084318268
 H      2.9990493193     4.9643542771    -0.3191259667
 F      2.4582632705     4.7284128503     0.3828505945
 H      2.0964215736     3.1253520455     0.1836715569
 F      1.9271453959     2.2431814090    -7.452096E-40
 H      2.9922147082    -0.0657588021    -1.8232370190
 F      3.0269973376     0.5032193544    -2.5415287608
          14
Energy: -47.60497926313626 Kcal/mole
 H      1.9876663423     1.0284814511     0.6561076450
 F      2.3808952675     0.2000744575     0.6547418501
 H      3.8171391639     0.1616412595    -0.1094081861
 F      4.6094041621     0.1773331177    -0.5708829290
 H      3.9884357302     5.4803764685    -1.2795428641
 F      3.8900072313     6.0841449948    -0.5964144741
 H      4.6509025932     3.3914376230    -2.1867256043
 F      4.1105924954     4.1210384336    -2.3157087639
 H      3.5186562248     5.1230654982     0.7002112701
 F      3.2580284898     4.5511591245     1.3679576917
 H      2.0382047580     3.3974516746     0.9955929413
 F      1.5028313447     2.7803732262     0.5790854422
 H      5.3477048464     1.5539357180    -1.2664171241
 F      5.7266097153     2.2498309905    -1.7279903795
          14
Energy: -46.9463159810301 Kcal/mole
 H      3.8103444848    -1.0737825829    -0.3644552201
 F      4.2408522854    -1.4539101189    -1.0793363920
 H      5.6776688851    -0.4673029510    -1.4851765267
 F      6.3538006019     0.1411821915    -1.6012830845
 H      2.4042354536     4.1637209309     0.2274577439
 F      1.5218542052     3.9551996897     0.3646117609
 H      4.3600711841     3.6426159797    -0.7246137577
 F      4.0456180513     4.1205824892    -0.0079853721
 H      1.1639699078     2.2754240650    -0.0032933172
 F      1.0845670206     1.3789944212    -0.1793560196
 H      2.3838073960     0.4409193184     0.4691073439
 F      3.0659853643     0.0048160773     0.8996142344
 H      5.6278461235     1.7045408166    -1.7430276838
 F      5.0373909677     2.4034537301    -1.8044479439
          14
Energy: -47.23034685889182 Kcal/mole
 H     -0.0984701810     1.6505149164    -2.0396987732
 F      0.4482392099     1.2201557608    -2.6370168115
 H      1.4507061650     0.1110972652    -1.9547659807
 F      2.0889898315    -0.4756344303    -1.6560539478
 H      4.1152103081     3.0774435986     0.5029110731
 F      3.3970302559     3.6476084888     0.4986203129
 H      5.0453613113     1.0533626353    -0.2546753174
 F      5.0974764702     1.6457713772     0.4433396486
 H      1.9803039890     2.6715503815     0.6119779396
 F      1.3207844519     2.0383843329     0.6828562503
 H     -0.3023153317     2.3243293254    -0.0327770034
 F     -0.9524885633     2.2914042436    -0.6785940888
 H      3.5882354196     0.1849543361    -1.7511239025
 F      4.4682053627     0.4423190059    -1.7336503249
          14
Energy: -46.584849796290285 Kcal/mole
 H      2.4508301329     1.9053011008    -3.2763386495
 F      1.7761235880     1.3376263119    -3.0245343362
 H      2.2029747777     0.6830843956    -1.5317779333
 F      2.6184567224     0.2104144076    -0.8648095412
 H      4.0066186277     5.5841062082    -0.5160480833
 F      4.0586026883     6.2509505764    -1.1433480483
 H      3.5824907612     3.2779647780     0.5137901658
 F      3.9440047976     3.9494416218     0.0045599136
 H      2.9937961001     5.7278269154    -2.3267420718
 F      2.4879193240     5.3510587064    -2.9923421048
 H      3.0902323283     3.8914079422    -3.5469937349
 F      3.5176811106     3.0967658984    -3.7104579837
 H      2.9458759394     1.1790840769     0.5931488835
 F      3.0544357948     1.7800132062     1.2772453236
          14
Energy: -47.32108789138127 Kcal/mole
 H      4.1732108908     2.8184854092    -3.1527882287
 F      3.3296995165     3.1770969798    -3.1249439690
 H      2.3353954812     2.3322241179    -2.1240543401
 F      1.9924287872     1.8430955018    -1.4283417243
 H      4.3862082807     4.7633851481     1.0070160578
 F      5.1726319503     4.8642961413     0.5463168248
 H      2.2484722386     3.9211078599     1.1998018403
 F      2.9415508352     4.1188998873     1.7667316180
 H      5.5566352591     3.2391726610     0.1380996718
 F      5.6804078411     2.4462680604    -0.3056025281
 H      5.9083673615     2.1776973157    -1.9940987449
 F      5.6702643575     2.0249795679    -2.8663792325
 H      1.2385018340     3.0040183791    -0.4590182634
 F      0.9468394483     3.6536584143     0.1187272493
          14
Energy: -45.68888882297942 Kcal/mole
 H      6.2450975061     5.1223402874    -2.9145782689
 F      5.6053933711     5.6585500238    -3.2942448835
 H      4.3373734394     5.4292678701    -2.0911421141
 F      3.8922987175     5.2698792962    -1.3053986608
 H      5.5200853295     1.0547697981     2.0009245303
 F      6.4340281817     1.0553839051     2.0757382030
 H      4.0901164517     1.9267909931     0.7511157485
 F      3.9942583835     1.4749738672     1.5433035516
 H      7.0183188919     1.5076560476     0.5581530211
 F      7.1467359316     1.6758942371    -0.3340879640
 H      7.0646963730     2.9782541070    -1.4909615216
 F      6.9639882444     3.6108872541    -2.1471034072
 H      4.1525088625     3.5290683017    -0.8073799660
 F      4.2685714005     2.6277525132    -0.6847083038
          14
Energy: -47.72610677351433 Kcal/mole
 H      4.0366074942     3.8989707111    -3.3445682866
 F      3.4748625423     3.2142394289    -3.1069242668
 H      4.3165802278     2.6487493211    -1.9265529288
 F      4.8892829823     2.4062388792    -1.2526914886
 H      5.0559073889     4.9086702912     0.6502387210
 F      5.1105040200     5.4874220402    -0.0589542153
 H      4.5979304545     3.1563991141     1.7981124179
 F      4.9579093364     3.9831376177     1.9648686808
 H      6.3315807905     5.2371696765    -1.0775024510
 F      6.9238445951     4.9814710424    -1.7292161874
 H      5.8531745792     5.0145908049    -2.9927996529
 F      5.1035018845     5.0808692661    -3.5167147380
 H      4.4265185507     1.6578467109     0.2517378784
 F      4.1806883136     1.5961916837     1.1330182833
          14
Energy: -47.81983203630621 Kcal/mole
 H      3.1850909662     5.2254721397    -0.9846941959
 F      2.9980302348     4.4701172773    -1.4698089397
 H      2.5571685432     3.0496193205    -0.7529347128
 F      2.3128302848     2.3395923725    -0.2265797483
 H      6.0434645564     4.3436083488     2.7010044268
 F      6.3420800900     5.2061191096     2.6127267364
 H      4.5739379296     2.7398362850     2.7364643266
 F      5.4686554344     2.8182107517     2.9214698120
 H      6.2124167899     6.1747204882     1.2451288143
 F      6.0920005369     6.7402343819     0.5333823973
 H      4.4631114187     6.6827228851     0.3143426823
 F      3.5829702292     6.4430812917     0.2204683346
 H      2.6147798948     2.7458445098     1.4138941850
 F      2.8435775967     3.0171081490     2.2594452773
          14
Energy: -47.18861165223285 Kcal/mole
 H      3.0261858776     5.3995114473     0.7654685721
 F      2.2821952825     5.1894903158     1.2586806145
 H      1.9933839314     3.5517501481     1.5893835471
 F      2.0256285875     2.6931944855     1.9099010294
 H      6.1768143411     4.3853561140     3.2926564322
 F      6.1495989553     5.1133915152     3.8495341364
 H      5.2008545299     2.6946449333     2.7631303158
 F      5.9118186281     3.0338814107     2.2937289274
 H      5.3790442611     6.5084271536     3.0114907836
 F      4.9929707150     7.0686869077     2.3967182851
 H      4.5694080390     6.5457230485     0.8097903780
 F      4.3986424278     6.0786813401     0.0393358702
 H      3.1605025862     2.2497967670     3.0189832395
 F      3.8773986865     2.1853477756     3.5871340195
          14
Energy: -47.83574921616993 Kcal/mole
 H      3.3051495300     4.4526960072     0.5007761822
 F      2.5961417295     3.8821711398     0.3880893839
 H      2.1214264046     3.2476541269     1.8348681942
 F      2.0004934590     3.0330911860     2.7181727663
 H      6.6503985682     4.9525418500     4.1957272015
 F      7.3132143208     5.3084356767     3.6714144492
 H      4.9683893806     3.6657362201     4.1282442702
 F      5.2266264249     4.2839602113     4.7543446820
 H      7.2120855811     4.6040867104     2.1462496539
 F      6.8839625320     4.0785117693     1.4702354188
 H      5.4425518424     4.7932865650     1.0256890917
 F      4.7348654801     5.3039602930     0.7441196400
 H      3.6452933791     2.6717953177     2.9514568952
 F      4.5615783170     2.6977358667     2.9261982257
          14
Energy: -46.482403659683285 Kcal/mole
 H      6.1882679352     2.5154862958    -0.2787157605
 F      6.5647552876     1.7186646658    -0.0252960226
 H      5.3965405099     0.6935897992     0.6958594339
 F      4.6273660757     0.3687901390     1.0750228162
 H      6.5912556972     4.0490842000     2.9561571198
 F      7.2956162734     4.3599945151     2.4580607891
 H      5.3329426947     2.3098037357     3.8914575440
 F      5.3850520452     3.2241614180     3.9375405595
 H      6.6863571015     5.6769371693     1.5075011225
 F      6.2735649471     6.1276316381     0.8238593062
 H      5.7902558751     4.8339425887     0.0323620236
 F      5.6007627021     4.0504715492    -0.4048501304
 H      4.7484257523     0.4648297608     2.7530848682
 F      4.7739759734     0.6902486428     3.6415793891
          14
Energy: -47.48946836555773 Kcal/mole
 H      3.4379322308     3.5691369002     1.9245059103
 F      3.0749677631     2.7711932415     1.6553745059
 H      4.2920298488     1.7874999729     1.4358341922
 F      5.0591104007     1.3168865016     1.2597677626
 H      6.7732766986     2.4215215675     4.9232426973
 F      6.6792263089     3.3199709420     5.0808252019
 H      6.3595511164     0.1782003666     4.0857649764
 F      6.8863524821     0.7788041189     4.5359254521
 H      6.7026187758     4.0343096157     3.5313051998
 F      6.5502699327     4.2408922414     2.6509629659
 H      5.0667293380     4.8096107704     2.6116301073
 F      4.1563134195     4.9128843739     2.6485952003
 H      5.3699200646    -0.0081890718     2.2561485395
 F      5.4289569603    -0.5720678839     2.9768734039
          14
Energy: -48.15443855104418 Kcal/mole
 H      2.9111893810     4.5117753767     1.9643865648
 F      3.2399708383     3.9109211572     1.3546604294
 H      3.7731688537     2.3490282415     1.8779447538
 F      4.2415600977     1.6220618508     2.1829341131
 H      5.9211525039     3.7098773982     4.3844325168
 F      5.0346153507     3.6131409819     4.5979341368
 H      7.3318268569     2.9723144653     3.0045737093
 F      7.4423282618     3.5606062209     3.6992615888
 H      4.2516742703     5.0967497840     4.9236281754
 F      3.8624194328     5.9268539626     4.9408538597
 H      2.8537094941     5.9637141379     3.6112213124
 F      2.3711164972     5.7689042229     2.8562099904
 H      5.8577556733     1.7760814901     1.9945748161
 F      6.7508329557     1.9240355385     1.8482478966
          14
Energy: -47.514548196180584 Kcal/mole
 H      3.7032405485     3.1160619705     5.2506725296
 F      4.0922162674     2.2919363829     5.3526720689
 H      3.6564661188     1.1339851609     4.3278204461
 F      3.5646572197     0.4915151768     3.6799837030
 H      6.4063176642     4.5862466218     1.8643330212
 F      6.0829666207     5.4431546237     1.8191469734
 H      5.9104688829     2.4966131297     1.7203133573
 F      6.6786111465     2.9423383800     1.9487328489
 H      4.3799442627     5.2078058863     2.2913799239
 F      3.5197308389     4.9520916650     2.4798795326
 H      3.0436568923     4.8151419713     4.1130184565
 F      3.0231120351     4.5727294966     4.9971582084
 H      4.2606325093     1.0239870822     2.1925749214
 F      4.5968228975     1.4551658136     1.4564024386
          14
Energy: -47.985863926009515 Kcal/mole
 H      2.7109784045     0.3817251434     3.2307101329
 F      3.1969681790    -0.3928751169     3.2992475377
 H      4.7537554364     0.1271037229     3.6543307333
 F      5.5705908243     0.5422018438     3.6912427793
 H      5.2150613714     5.2058255026     2.3880868720
 F      4.4138104438     5.4949252715     2.7276561206
 H      5.8591659117     3.5113182831     1.5408496424
 F      6.3098677950     4.3086489612     1.4958985346
 H      3.0834033209     4.6992798912     2.1215972718
 F      2.3709798501     4.1932179164     1.8436708861
 H      2.0781964167     2.7622623292     2.7438587285
 F      2.0253425766     1.9673090530     3.1978904016
 H      5.2776836671     1.5884687671     2.4361666470
 F      4.8753688016     2.1239570428     1.8098408088
          14
Energy: -47.84080108430372 Kcal/mole
 H      4.3337985403     1.1546572878     4.0157398260
 F      5.1824897445     0.9363881013     3.7456087430
 H      5.9689077884     2.2950034047     3.3248075112
 F      6.3923908072     3.0676596599     3.0707338132
 H      5.0245337428     5.8473143232     2.4924150613
 F      4.6058517632     5.9101397063     3.3058321568
 H      6.3970947903     5.0754131020     0.7939841111
 F      5.8917863286     5.8180797642     0.9783711695
 H      3.4348680687     4.7675373369     3.0663518131
 F      2.9189688696     4.0321229708     2.8822248827
 H      2.7377206615     2.7712227346     4.0176493154
 F      2.9338789532     2.0359608283     4.5293141018
 H      6.8226664694     3.2165105390     1.4574731491
 F      7.0864162808     3.5526184176     0.6460814244
          14
Energy: -47.701907654868705 Kcal/mole
 H      4.5759514124     1.1139474241     4.0291416808
 F      5.1195806533     0.7321766077     3.3969966877
 H      6.4816886597     1.5882909774     2.9590969578
 F      7.2152927822     2.0923653483     2.7385906765
 H      5.2688327750     6.1256974440     1.9105649173
 F      4.7962883068     6.0273098367     2.6902511390
 H      6.4921553963     5.0825628907     0.6704690078
 F      6.2841578014     5.9753757091     0.6478576854
 H      3.7310689479     4.7675779138     2.9664876624
 F      3.2533071737     4.0000853900     3.1200712329
 H      3.5707233422     2.8127479848     4.4217858274
 F      3.7947785530     2.1656637546     5.0316794752
 H      7.1377601031     2.9907360305     1.3830864379
 F      6.9237053300     3.4835561707     0.6399862674
          14
Energy: -47.025026046612595 Kcal/mole
 H      4.5008192440     1.3693380155     3.0553550269
 F      4.3186254953     0.9351477255     2.2684794141
 H      5.5567343515     0.1819455879     1.4291245961
 F      6.2654077976    -0.1091044373     0.9251793316
 H      5.1905323788     4.2843352545     1.5236169188
 F      4.3655265537     4.4736146823     1.8763600078
 H      6.7570320739     3.3039152689     0.3433666407
 F      6.7548363057     3.9915407161     0.9500423556
 H      4.2433250318     4.7736372658     3.5837658421
 F      4.3853238291     4.7811378738     4.4896737196
 H      4.8398041459     3.1158357845     4.6933730767
 F      5.0774872076     2.2806466891     4.3986614597
 H      6.9839721157     1.0963153265    -0.1553625991
 F      7.0635264661     1.8855630091    -0.6154149883
          14
Energy: -48.29619302937573 Kcal/mole
 H      3.1979139136     0.4260369813     1.3025005723
 F      3.2548169124     0.2482384199     0.4047039804
 H      4.6709106107    -0.4301258016    -0.2266265777
 F      5.4583356973    -0.7754929527    -0.5453306157
 H      5.2992177596     3.8963587390     0.2560685065
 F      4.5750802883     4.4369363003     0.4119204328
 H      6.6410144380     2.2542421844    -0.6642037799
 F      6.5777837530     2.8660707551     0.0159114167
 H      3.7843575686     3.9256312423     1.7350385145
 F      3.3955414534     3.4993915771     2.4478012917
 H      3.2828515095     1.9029700316     2.7511159337
 F      3.1953165601     0.9962680503     2.8565585713
 H      6.1776773005     0.3662660290    -1.5742530104
 F      6.5045771518     1.1651799098    -1.8837075278
          14
Energy: -47.76417272990747 Kcal/mole
 H      3.4659733795    -0.2064552760     1.9897329897
 F      3.4952586721    -0.9337844899     1.4320381034
 H      4.6828425382    -0.9204348775     0.1885334082
 F      5.3361294218    -0.7526681702    -0.4327230442
 H      5.4918604953     3.5315349969     0.6120553315
 F      4.8214679508     4.0762829932     0.3043014417
 H      6.9252788268     1.8880190716     0.5503120546
 F      6.5862075058     2.4532966048     1.1877922109
 H      3.3033848125     3.3620169688     0.4994112428
 F      2.5443859372     2.8776101620     0.6730768779
 H      2.9607150132     1.9382524582     1.9658246914
 F      3.3258652967     1.3850021253     2.5994399844
 H      6.6055540656     0.2255239324    -0.7537718894
 F      7.2412528007     0.8782393254    -0.8573997517
          14
Energy: -47.646116399612936 Kcal/mole
 H      3.6976638072    -0.5641767842     1.5397322169
 F      4.3185488516    -1.2317021269     1.4407338401
 H      4.9746413571    -0.9062621059    -0.0429012448
 F      5.2906612508    -0.5217015721    -0.8130529329
 H      4.2486233256     4.0276583442    -0.1527916662
 F      4.0337122406     4.5474025938     0.5714790984
 H      5.7013927280     2.4626638837    -0.7240530040
 F      5.0356698435     2.8967907571    -1.1814761111
 H      4.1859040474     3.4469206769     1.7412470463
 F      4.2595343118     2.6879094444     2.2505303987
 H      3.1849550030     1.3914580993     1.8857894984
 F      2.6469661001     0.6767167803     1.6842906467
 H      6.2711663222     0.6979291470    -0.3376694793
 F      6.7733923001     1.4364308968    -0.1296472865
          14
Energy: -48.04428515192154 Kcal/mole
 H      4.5818777073    -0.3131880542     0.9019839542
 F      5.1954313593    -0.5074233081     0.2487507782
 H      5.1597127267     0.6424748441    -0.9129226571
 F      5.0614201652     1.2823480067    -1.5623762029
 H      5.0438208844     4.1406458109     1.0527781941
 F      4.4012532753     3.6587618704     1.4952527532
 H      6.7091977524     3.9262892792    -0.4509789059
 F      6.3326098235     4.5826906710     0.0669088664
 H      4.8878531401     2.7900487872     2.8788444396
 F      4.9477954739     2.1105493491     3.4916873479
 H      4.0800097503     0.8216795806     2.7810871302
 F      3.6425765518     0.2358590025     2.2275932756
 H      6.5026542460     2.1547680147    -1.5572835624
 F      7.2644975936     2.6427742628    -1.4078392064
          14
Energy: -48.218454989214365 Kcal/mole
 H      3.1722054569     0.3521265691     0.5526146665
 F      3.4572892368    -0.1766967143    -0.1401783570
 H      4.1531106467     0.7307800596    -1.3545362351
 F      4.6209125477     1.3476664265    -1.8459643496
 H      5.6444955165     4.3226270349     0.4305180992
 F      4.7935890002     4.4091597127     0.7612131191
 H      7.1094746584     2.8700043040    -0.3871565441
 F      7.1634893981     3.7369938917    -0.0933871402
 H      4.7522778352     3.3793628944     2.0812122414
 F      4.7587278934     2.7120666652     2.7101503459
 H      3.4562210277     1.8603287537     2.1971679801
 F      2.7700922338     1.4385882971     1.7587033118
 H      6.1090572362     1.2897301549    -1.2189348696
 F      6.8504473470     1.3554431137    -0.6832936550
          14
Energy: -48.128817157222784 Kcal/mole
 H      3.2226777460     0.1209408347     0.9183259344
 F      3.6752077266    -0.5835330621     0.5443979395
 H      4.2214775139     0.3425445664    -0.7810236806
 F      4.3574872933     1.0558537770    -1.3410061001
 H      4.9070307771     4.2908546196    -1.7809877238
 F      4.2250273010     4.3913432961    -1.1762875629
 H      6.4013220492     3.0214471012    -2.8896549841