          14
Energy: -49.19516260439681 Kcal/mole
 H      1.7423542411     4.6572204199    -0.6776539071
 F      2.1151030025     4.7957484626    -1.5039452252
 H      0.8868370643     5.1715366647    -2.5534296882
 F      0.1124913685     5.2587159621    -3.0368317087
 H     -2.8360968649     2.3096866823    -0.0835988193
 F     -2.5755868953     1.9256777989     0.7073251551
 H     -2.4089769669     3.0103175086    -2.0662266401
 F     -3.1510762563     3.0350664460    -1.5281140731
 H     -0.9244243034     1.8171369336     0.5953505983
 F     -0.0303714026     1.8717201987     0.3989350245
 H      0.5584863957     3.4136504788     0.5910975410
 F      0.8122441938     4.2923560157     0.6572228715
 H     -0.5695050843     3.7529434928    -2.9880374655
 F     -0.9298744087     2.9260807724    -2.8227468376
          14
Energy: -49.20555872352354 Kcal/mole
 H      1.4323602335     4.7220052868    -0.8175488659
 F      1.9350158684     5.0516830685    -1.5100363192
 H      0.9768469394     5.1404513058    -2.8577788610
 F      0.3445327298     5.0935144831    -3.5202474829
 H     -2.7454408054     2.2157938412    -0.2257294777
 F     -2.5084151732     1.5881555699     0.3993929503
 H     -2.2280998273     3.1323916869    -2.0525301318
 F     -2.9195697023     3.3085312206    -1.4765672193
 H     -0.8480268302     1.4657884889     0.5063990843
 F      0.0653528151     1.5444075109     0.4852881194
 H      0.2889487866     3.1454727762     0.3558928592
 F      0.2947846970     4.0559509036     0.2468767052
 H     -0.4204349852     3.6718793361    -3.1703551251
 F     -0.7983222262     2.8803774384    -2.9027453736
          14
Energy: -49.15055776321846 Kcal/mole
 H      1.6219690173     4.4907784060    -0.8837771162
 F      2.0991213878     4.7375543021    -1.6269569548
 H      1.0357524927     4.9477691823    -2.8712777020
 F      0.3482040611     4.9908973827    -3.4765099818
 H     -2.7583420579     2.0791150953    -0.2513862344
 F     -2.5215856388     1.4307756574     0.3523449735
 H     -2.1516003439     3.0833387870    -1.9873509920
 F     -2.8892257396     3.2168919386    -1.4591830913
 H     -0.8719293347     1.4130888539     0.4770852599
 F      0.0429297090     1.4748208258     0.4876253629
 H      0.4728137927     3.0692943119     0.4512476856
 F      0.5924299748     3.9734658398     0.3560908831
 H     -0.4499129692     3.5990779162    -3.1237058764
 F     -0.7792224156     2.8032103828    -2.8090010024
          14
Energy: -49.19449927431309 Kcal/mole
 H      1.5187839981     4.3296689097    -0.9288364968
 F      2.0938824755     4.5393900520    -1.6116013053
 H      1.1206901578     4.8207768838    -2.9206341467
 F      0.4710604237     4.8532912855    -3.5670187244
 H     -2.7751922178     2.1547038609    -0.0651250500
 F     -2.6047135546     1.5375047444     0.5912980422
 H     -2.2032911380     3.1292861681    -1.9048642628
 F     -2.9046549434     3.2310988811    -1.3229605045
 H     -0.9840333445     1.5325009701     0.9379994594
 F     -0.0707468307     1.5942261483     0.9926505903
 H      0.1787107025     3.1122295165     0.4170316357
 F      0.1681425769     3.9477648668     0.0393307049
 H     -0.4740564169     3.5183853220    -3.2136210246
 F     -0.9093276286     2.7817882630    -2.8836926310
          14
Energy: -49.14937936966629 Kcal/mole
 H      1.5268640105     4.5237927026    -0.8258488912
 F      2.0324976855     4.7878091527    -1.5438453402
 H      1.0654134599     4.8810853473    -2.8596284885
 F      0.4536091291     4.8443280384    -3.5417086605
 H     -2.7997436939     2.1414501822    -0.1257438594
 F     -2.6073955304     1.5233253180     0.5237273380
 H     -2.2546022117     3.1090694159    -1.9539468213
 F     -2.9184200325     3.2831695501    -1.3457330069
 H     -0.9531526099     1.4184795783     0.7729623963
 F     -0.0404267990     1.4759561674     0.8401712932
 H      0.3568868151     3.0650057791     0.5487623900
 F      0.3986219448     3.9470241826     0.3013948199
 H     -0.4443002348     3.4935319413    -3.1780039982
 F     -0.9139834866     2.7598771848    -2.8915823835
          14
Energy: -49.17632681400126 Kcal/mole
 H      1.5190184920     4.4994793809    -0.7027764640
 F      2.0520441423     4.7204354652    -1.4154833216
 H      1.0199249759     4.8111513826    -2.6792669290
 F      0.3393565056     4.8246481919    -3.2937043899
 H     -2.7928974199     1.9449774934    -0.1978836519
 F     -2.5948069790     1.2722913594     0.3929991980
 H     -2.2698287849     2.9972828139    -1.9292970818
 F     -2.9400440023     3.1600010567    -1.3249599774
 H     -0.9651653835     1.3807993657     0.7915355271
 F     -0.0671435743     1.5288538526     0.9034537966
 H      0.1903786710     3.1206338107     0.5216020383
 F      0.2337235850     4.0034198984     0.2772683694
 H     -0.5003500343     3.4277602408    -3.1002965625
 F     -0.9528342096     2.6599102460    -2.8845340620
          14
Energy: -49.13003805561368 Kcal/mole
 H      1.4347140144     4.2844638693    -0.8152997190
 F      1.9744353570     4.4764431545    -1.5313540650
 H      0.9911665829     4.7385493726    -2.8644001530
 F      0.3473517343     4.7565290013    -3.5171391312
 H     -2.7388815169     1.9980433510    -0.1318709711
 F     -2.5695738801     1.3314901386     0.4747019751
 H     -2.1938957232     2.9964090055    -1.9277313609
 F     -2.8649658709     3.1670824552    -1.3265455074
 H     -0.9900031927     1.3679503211     0.9993473483
 F     -0.1072893297     1.5167429177     1.1982593876
 H      0.1625331622     3.0168972057     0.6118297055
 F      0.1519575494     3.8531419290     0.2357021751
 H     -0.4417787982     3.4134627284    -3.1424715173
 F     -0.8540329938     2.6575769251    -2.8269209973
          14
Energy: -49.06678787117819 Kcal/mole
 H      1.4265642434     4.1689145511    -0.9719468797
 F      2.0669271149     4.3541018942    -1.6016531928
 H      1.1901634769     4.4561000637    -3.0423403666
 F      0.5790013558     4.3931925540    -3.7230844499
 H     -2.7336261889     1.8950485617    -0.0496811090
 F     -2.5441894587     1.2822611512     0.6056770487
 H     -2.1547406952     2.7305640900    -2.0216474976
 F     -2.7794675615     2.9363303238    -1.3826908484
 H     -0.8629054368     1.2640436980     0.8761754023
 F      0.0488573876     1.3615119112     0.8849787807
 H      0.1854116881     2.9043714203     0.3293573258
 F      0.1196796779     3.7345835405    -0.0544605194
 H     -0.3490246229     3.0849777074    -3.3692972496
 F     -0.8557651663     2.3772641748    -3.0807758857
          14
Energy: -49.083147912364325 Kcal/mole
 H      1.5426181187     4.2976537179    -0.8578848054
 F      2.1161424453     4.5437834072    -1.5297322753
 H      1.1815321061     4.4531540018    -2.9439920500
 F      0.4989797497     4.3273191273    -3.5433057118
 H     -2.7195151793     1.8833597917    -0.0564719709
 F     -2.4793057387     1.3135840006     0.6206867790
 H     -2.2203424679     2.6424079888    -1.9925831044
 F     -2.9167579983     2.8176958948    -1.4223475750
 H     -0.8257199127     1.2732315494     0.7043147078
 F      0.0888752240     1.3282249145     0.6671600879
 H      0.3109172679     2.9053689664     0.3593116135
 F      0.3005250672     3.7971621784     0.1460374491
 H     -0.3070864497     2.9875090529    -3.0537675207
 F     -0.7820027191     2.2651840715    -2.7478424346
          14
Energy: -49.156795661217174 Kcal/mole
 H      1.5177314004     4.2187209615    -0.8900206681
 F      2.0826973605     4.3728658950    -1.5956705838
 H      1.0425059485     4.6043043768    -2.8804656481
 F      0.3608539203     4.5625137293    -3.4924240243
 H     -2.7662674685     1.5241535072    -0.2845927708
 F     -2.4527448770     0.9767561297     0.3809511390
 H     -2.3012328060     2.5701625701    -2.0649720250
 F     -3.0053488532     2.6433677197    -1.4820907350
 H     -0.8570000586     1.2277316695     0.6524295063
 F      0.0308873753     1.4371923769     0.7455483374
 H      0.2543125114     3.0111900430     0.4450130137
 F      0.2944682621     3.8919015696     0.1927755806
 H     -0.4368633272     3.1314782853    -3.1749020984
 F     -0.8619060461     2.3634006023    -2.9097901219
          14
Energy: -49.17462873686593 Kcal/mole
 H      1.6764637004     4.1945567100    -0.7993297557
 F      2.1826102707     4.3389524734    -1.5502322214
 H      1.0909046186     4.5023303989    -2.7771697108
 F      0.4294740097     4.5001288501    -3.4123025337
 H     -2.5806083746     1.7910077946    -0.2049039145
 F     -2.3680949987     1.2495195262     0.5039807871
 H     -2.1390759493     2.5660360935    -2.0753613040
 F     -2.8330094699     2.7501993398    -1.5048973106
 H     -0.7269231851     1.2492131971     0.8029385268
 F      0.1712228948     1.4024634207     0.9065579662
 H      0.4433765585     2.9918098548     0.6014970039
 F      0.4797105258     3.8709720954     0.3433447279
 H     -0.3775837797     3.0977524894    -3.1520602577
 F     -0.7412173341     2.2957343673    -2.8962740776
          14
Energy: -49.132156213998854 Kcal/mole
 H      1.5631860961     4.3516978341    -0.8651178044
 F      2.0957669228     4.5975539805    -1.5699592180
 H      1.1066752512     4.7315370783    -2.8710681894
 F      0.4556109780     4.7250345866    -3.5167941605
 H     -2.5425401764     1.7794760544    -0.1817934328
 F     -2.2735280692     1.1439540277     0.4220552567
 H     -2.2274862805     2.8294666883    -2.0663976565
 F     -2.8561644449     2.9026436826    -1.4028481911
 H     -0.5983242080     1.1644912716     0.3987445989
 F      0.3074108128     1.2995340462     0.3508225667
 H      0.4574741730     2.9554053569     0.3239782074
 F      0.4587754083     3.8699523342     0.2569622900
 H     -0.4489388737     3.3788085810    -3.3097570119
 F     -0.8778802184     2.6059957798    -3.0655057130
          14
Energy: -49.16800672890247 Kcal/mole
 H      1.4706992473     4.3464278502    -0.8878789893
 F      2.0809982324     4.6046667758    -1.5217060998
 H      1.1764429739     4.8035046008    -2.9338235071
 F      0.5664724990     4.7396096218    -3.6155437220
 H     -2.5521875735     1.8875873200    -0.1799054004
 F     -2.3125397954     1.2450843283     0.4289031477
 H     -2.1210969435     2.9381481939    -2.0239778759
 F     -2.7901662355     3.0348435329    -1.4043931005
 H     -0.6389581804     1.2090711765     0.6254634807
 F      0.2677668406     1.3459036259     0.6215116275
 H      0.2885309845     2.9679091176     0.2986358646
 F      0.1667547177     3.8326027339     0.0186992812
 H     -0.3370630261     3.3844420384    -3.3117423851
 F     -0.7919540376     2.6406431466    -3.0276185104
          14
Energy: -49.241759677109215 Kcal/mole
 H      1.3544281714     4.3857222622    -0.8721435263
 F      1.9587795044     4.6399902057    -1.5132334413
 H      1.0560774822     4.7573996675    -2.9025519340
 F      0.4377486995     4.7331996085    -3.5792888649
 H     -2.6802544552     1.7535773210    -0.4610700851
 F     -2.4213506402     1.0887896909     0.1150507542
 H     -2.1545953504     2.7910278453    -2.2139170261
 F     -2.8753921998     2.8899271577    -1.6557415807
 H     -0.7817247884     1.1522325467     0.3621322906
 F      0.1169576192     1.3179020132     0.4383724249
 H      0.1719145930     2.9273133829     0.2144298280
 F      0.0750749385     3.8197624495     0.0272247403
 H     -0.3188807185     3.3001848666    -3.3135492841
 F     -0.7420382872     2.5428910671    -3.0163409844
          14
Energy: -49.24902626538379 Kcal/mole
 H      1.5341948188     4.2557561115    -0.9841234484
 F      2.0701995332     4.4977711265    -1.6876976654
 H      1.0847617128     4.6430506382    -3.0218893694
 F      0.4492027525     4.6297602508    -3.6827805659
 H     -2.7044218576     1.7256340661    -0.3788188675
 F     -2.4536209031     1.1559579362     0.2945732829
 H     -2.1506113234     2.7210388852    -2.1501869395
 F     -2.8988456189     2.7798383015    -1.6233311075
 H     -0.8273797597     1.1757060059     0.6124760990
 F      0.0763541061     1.2961558806     0.7106897826
 H      0.2655731681     2.8814596443     0.3019067631
 F      0.2661485896     3.7548151162     0.0223734223
 H     -0.3208227230     3.2506537925    -3.3080377661
 F     -0.7130945102     2.4908735724    -2.9767586359
          14
Energy: -49.21913178164928 Kcal/mole
 H      1.5665864690     4.0915870156    -1.1258984212
 F      2.1465476253     4.2609090096    -1.8157274722
 H      1.1320029056     4.5555720409    -3.0857875095
 F      0.4615731117     4.5633733589    -3.7113688639
 H     -2.6858291702     1.7293795374    -0.4677496579
 F     -2.4572194710     1.1536558722     0.2083929801
 H     -2.1159548417     2.6718951266    -2.2614151166
 F     -2.8571173037     2.7765291695    -1.7316803509
 H     -0.7920859319     1.1686325203     0.4136631224
 F      0.1207227115     1.2296876286     0.4764457174
 H      0.3443756922     2.8186526892     0.1564391614
 F      0.3283153415     3.7014380133    -0.0911918882
 H     -0.3209251387     3.1515792857    -3.4263083300
 F     -0.7114377972     2.3843857575    -3.1103922749
          14
Energy: -49.15653131597523 Kcal/mole
 H      1.5972196364     4.1619059561    -1.2581494309
 F      2.2021931076     4.3511075182    -1.9207947870
 H      1.1414196089     4.4908728906    -3.1685332266
 F      0.4323532097     4.4603440331    -3.7492068271
 H     -2.7471633624     1.6469797362    -0.6028724022
 F     -2.4856349292     1.0902752901     0.0772540849
 H     -2.2077715578     2.4687021893    -2.4882071096
 F     -2.9307408522     2.6139507998    -1.9431316649
 H     -0.8574827827     1.1945434898     0.4455514714
 F      0.0449385342     1.3208340266     0.5483885608
 H      0.3351217144     2.8994527686     0.0761317752
 F      0.3149702601     3.7563519148    -0.2497620298
 H     -0.3719715103     3.0166528135    -3.5441342326
 F     -0.7789015743     2.2268268238    -3.3172601947
          14
Energy: -49.233353898582706 Kcal/mole
 H      1.5415097970     4.1408056405    -1.1798754564
 F      2.1356875349     4.3218492836    -1.8544605252
 H      1.1928850853     4.4123649008    -3.2273376393
 F      0.5595629340     4.3563983248    -3.8881400266
 H     -2.7193336222     1.5580007973    -0.5286370827
 F     -2.4711096097     1.0450827590     0.1898258083
 H     -2.1730160093     2.4913943375    -2.4204959111
 F     -2.9143741953     2.5130937905    -1.8812314362
 H     -0.8170034801     1.1266224724     0.4733736189
 F      0.0878821055     1.2699939578     0.5123055362
 H      0.2679083024     2.8548419560     0.1177288800
 F      0.2385979399     3.7261946593    -0.1664794396
 H     -0.2928272600     2.9904211059    -3.5495706508
 F     -0.7465951217     2.2444329870    -3.2694180958
          14
Energy: -49.224197036332754 Kcal/mole
 H      1.4543775634     4.2164733588    -1.2640571753
 F      2.0809372805     4.3949400189    -1.9093955146
 H      1.2803257316     4.2875795146    -3.3220090031
 F      0.7046710406     4.1586026339    -4.0240600276
 H     -2.6070642481     1.7247689145    -0.6176482023
 F     -2.3937146296     1.1257026959     0.0430261547
 H     -2.0976414751     2.5619459485    -2.4546094568
 F     -2.7763495769     2.7678648579    -1.8733679275
 H     -0.7721074436     1.2134490774     0.3786205051
 F      0.1303639175     1.3592953764     0.4504766068
 H      0.2442472208     2.9536642599     0.0415719946
 F      0.1935530698     3.8213506581    -0.2507282236
 H     -0.2465862774     2.8376975317    -3.6393370552
 F     -0.7361932679     2.1344323607    -3.3128526082
          14
Energy: -49.20156441636372 Kcal/mole
 H      1.5030470647     4.0947589959    -1.3123292051
 F      2.1474767918     4.2118741344    -1.9541106096
 H      1.2461203673     4.2907491988    -3.3809087212
 F      0.6178765711     4.2030223549    -4.0431041103
 H     -2.6552991838     1.7714571084    -0.5845593239
 F     -2.4446745153     1.2727735776     0.1556034860
 H     -2.1018870598     2.3946504636    -2.5438063723
 F     -2.8333319304     2.5791719788    -2.0224339414
 H     -0.8180800919     1.3122366404     0.5650756318
 F      0.0780189242     1.4829597814     0.6586125893
 H      0.2147752181     2.9721758767    -0.0113578013
 F      0.1493550072     3.8008444016    -0.3985498361
 H     -0.2539511721     2.8563466931    -3.6266670416
 F     -0.6663894428     2.1043765754    -3.3021295017
          14
Energy: -49.24466083189864 Kcal/mole
 H      1.4974117267     4.2290020348    -1.3575617930
 F      2.1305206117     4.3525684604    -2.0093236193
 H      1.2584435357     4.2053449560    -3.4111444013
 F      0.6274010137     4.0327320132    -4.0537010971
 H     -2.6331775807     1.8404548685    -0.4362168118
 F     -2.4077492629     1.3401265901     0.2984550111
 H     -2.0368126573     2.4875770078    -2.3986968752
 F     -2.7435291546     2.7232606642    -1.8640063043
 H     -0.7728660445     1.3732664725     0.6011932511
 F      0.1308723749     1.5048129495     0.6839059688
 H      0.2820138340     3.0064078113     0.0311231862
 F      0.2051896832     3.8340280135    -0.3562162654
 H     -0.2050826795     2.7241115350    -3.5638471179
 F     -0.6627753211     2.0237962017    -3.1883942183
          14
Energy: -49.267375822814 Kcal/mole
 H      1.3866146152     4.1654486113    -1.3167112094
 F      2.0534177586     4.2564954363    -1.9395860312
 H      1.2705009863     4.1120497839    -3.3868484241
 F      0.6973551215     3.9271549775    -4.0783733537
 H     -2.5882694186     1.6038464137    -0.6045407441
 F     -2.3611664577     1.1168381006     0.1385178997
 H     -2.0022173239     2.1845422121    -2.5379391234
 F     -2.7648562762     2.3768267681    -2.0664547887
 H     -0.7527622469     1.2971804646     0.5869003396
 F      0.1238592588     1.5313390476     0.7195408074
 H      0.1584024905     3.0143184257     0.0301790831
 F      0.0414876539     3.8086769901    -0.4127818545
 H     -0.1096891710     2.5821780513    -3.5873504091
 F     -0.4979743166     1.8482748131    -3.1981079619
          14
Energy: -49.24644230959966 Kcal/mole
 H      1.4540934170     4.2374579602    -1.3382687102
 F      2.1091965231     4.3486427121    -1.9702235118
 H      1.2603339140     4.1850491999    -3.4084618481
 F      0.6828492485     3.9901254407    -4.0935933605
 H     -2.6212510741     1.5598749134    -0.5619583780
 F     -2.3916304540     1.1223497534     0.2105279359
 H     -1.9395341613     2.2288733263    -2.4838762433
 F     -2.7208015856     2.3849837254    -2.0298500822
 H     -0.8319895666     1.3990777047     0.6894522424
 F      0.0303119038     1.6618890496     0.8575455830
 H      0.1729391686     3.1151108432     0.1036003107
 F      0.1346953316     3.8942981616    -0.3783680822
 H     -0.0471782861     2.5891027632    -3.5471987837
 F     -0.4566569321     1.8741348963    -3.1446603534
          14
Energy: -49.22540660911349 Kcal/mole
 H      1.4689653336     4.3052475420    -1.3273265815
 F      2.0446557615     4.4118016101    -2.0330997474
 H      1.1460457301     4.1911188624    -3.3944085085
 F      0.5203270918     3.9819999312    -4.0313028940
 H     -2.6334365046     1.5755051613    -0.5056758526
 F     -2.4685110033     1.2679316709     0.3423141987
 H     -1.9049878920     2.0668869000    -2.5035636196
 F     -2.6929882658     2.1794497712    -2.0482900634
 H     -0.8390862238     1.4540552020     0.5898715893
 F      0.0595713156     1.6357762456     0.6066373045
 H      0.2093974622     3.1720674506     0.0865818468
 F      0.1866911555     4.0097682946    -0.2857496178
 H     -0.0922318204     2.5603847937    -3.5396007478
 F     -0.3912400958     1.8008585768    -3.1217455372
          14
Energy: -49.1623939024894 Kcal/mole
 H      1.5080849129     4.3646197639    -1.2840171962
 F      2.0613614497     4.4502062891    -2.0102740519
 H      1.1159206084     4.2516828679    -3.3695028965
 F      0.5398573663     4.0207650983    -4.0445711336
 H     -2.5429485020     1.6708173233    -0.4934170213
 F     -2.4055168063     1.3554258734     0.3566004858
 H     -1.8953242070     2.1017714221    -2.4323833647
 F     -2.6902160046     2.2688383520    -2.0067959225
 H     -0.7955150459     1.5363695472     0.7114256141
 F      0.0983794722     1.7298682175     0.7777570176
 H      0.3156675719     3.2807926641     0.2660443068
 F      0.3469140314     4.1292200849    -0.0804864572
 H     -0.0481602303     2.5622157606    -3.5236845306
 F     -0.3702526466     1.8494689342    -3.0450015073
          14
Energy: -49.23658623472319 Kcal/mole
 H      1.5315933226     4.4228433199    -1.3414859331
 F      2.0577340694     4.4332770812    -2.0924560065
 H      1.0058593081     4.2930064449    -3.3384717298
 F      0.3493223400     4.1345919073    -3.9587563772
 H     -2.6014919701     1.4732935996    -0.5456802013
 F     -2.3389176040     1.2345928200     0.2998762073
 H     -2.0352893976     1.9175051318    -2.5929983056
 F     -2.8134895977     2.0195947135    -2.1187924793
 H     -0.7711378301     1.5972523416     0.6254040830
 F      0.1130131509     1.8277986330     0.7029569704
 H      0.3241454605     3.3921621294     0.2103438572
 F      0.3767435595     4.2434951143    -0.1263378751
 H     -0.2156354455     2.6366791121    -3.5753169564
 F     -0.4893703544     1.8327501067    -3.2294031608
          14
Energy: -49.246200856768425 Kcal/mole
 H      1.5092263592     4.3359494041    -1.3967169382
 F      2.0912927919     4.3509831688    -2.1051388845
 H      1.1401113731     4.1353858404    -3.4132709784
 F      0.5360876402     3.9507396959    -4.0780642782
 H     -2.7423640584     1.6073447106    -0.4894986512
 F     -2.5269705871     1.3987941224     0.3771046633
 H     -2.0280107250     2.0075517423    -2.5192945242
 F     -2.8270405787     2.1105670895    -2.0813126396
 H     -0.8947030026     1.6055753557     0.6829834003
 F      0.0013737695     1.7955725831     0.7258374790
 H      0.2128465508     3.3157384361     0.1260124699
 F      0.2812349799     4.1395076737    -0.2709966811
 H     -0.1575637281     2.5413637072    -3.5562088450
 F     -0.4939514359     1.8042086451    -3.1268666453
          14
Energy: -49.25302956998182 Kcal/mole
 H      1.5191433187     4.3908111975    -1.4072532118
 F      2.0491424506     4.4737639497    -2.1509660335
 H      1.0952548509     4.1436172320    -3.4795762058
 F      0.4709848079     3.8855929192    -4.0997369651
 H     -2.7110910059     1.6159477141    -0.5319687519
 F     -2.4674110503     1.3279782133     0.3038438143
 H     -2.1644278796     1.9995305804    -2.5555346925
 F     -2.9299301169     2.1567316673    -2.0757606384
 H     -0.8140141439     1.5078071422     0.4970659220
 F      0.0882557078     1.6715031822     0.4957539385
 H      0.3038933166     3.2658439169     0.0865140602
 F      0.3674144307     4.1320416846    -0.2076890929
 H     -0.2517636064     2.4743182320    -3.6165539947
 F     -0.6496756617     1.7459640443    -3.2266114687
          14
Energy: -49.23701803499344 Kcal/mole
 H      1.5439603284     4.1069573577    -1.4301470502
 F      2.1264622706     4.1189559137    -2.1382688773
 H      1.1589707344     4.0573846559    -3.4981841652
 F      0.4989283884     3.9119559109    -4.1179289366
 H     -2.7060921903     1.5576537829    -0.5157562165
 F     -2.4534562993     1.1571817765     0.2695375366
 H     -2.1137544804     2.0627276204    -2.5273405600
 F     -2.8742267814     2.2522541598    -2.0512622364
 H     -0.8112202961     1.3633632892     0.5451800342
 F      0.0748937409     1.5956296472     0.5869323072
 H      0.2811628611     3.1335613769     0.0234003884
 F      0.3118095792     3.9819016047    -0.3233973000
 H     -0.2648402439     2.5135970777    -3.6203788484
 F     -0.6420817268     1.7792923751    -3.2211615299
          14
Energy: -49.21301115841338 Kcal/mole
 H      1.5864457022     4.1345472471    -1.3739809212
 F      2.1630970469     4.0705707853    -2.0841000937
 H      1.2419535406     3.9665366888    -3.4380356552
 F      0.6293811516     3.8010315982    -4.1000417981
 H     -2.6907305062     1.8447125314    -0.4317254316
 F     -2.4805029700     1.4697369225     0.3782663435
 H     -2.0717958760     2.2693664979    -2.4351018591
 F     -2.7947268154     2.5195865617    -1.9294836468
 H     -0.8366821616     1.4912277212     0.5567236043
 F      0.0703894442     1.6257741112     0.5594385480
 H      0.3641142389     3.2207082143     0.1720815224
 F      0.4294800989     4.0751889816    -0.1542295600
 H     -0.2245012866     2.5064739529    -3.5854365827
 F     -0.6691104851     1.7974944251    -3.2105236731
          14
Energy: -49.260911520092975 Kcal/mole
 H      1.6553757409     4.1558923371    -1.4180208911
 F      2.2333233190     4.1533016677    -2.1299611172
 H      1.2220903232     4.0111408368    -3.4278745371
 F      0.5383387939     3.8926305657    -4.0273144105
 H     -2.7083565956     1.9003153695    -0.4943282149
 F     -2.4862403848     1.5412749194     0.3197008657
 H     -2.1081344587     2.2342412048    -2.5010296418
 F     -2.8749817537     2.4637161118    -2.0536198818
 H     -0.8501303483     1.5313235840     0.5681402420
 F      0.0623689138     1.6171194671     0.5976895759
 H      0.3775059366     3.1418396559     0.0645669587
 F      0.4292047788     3.9691684640    -0.3275341417
 H     -0.2383773886     2.5312144240    -3.5092094508
 F     -0.6272302676     1.8103149332    -3.0969154261
          14
Energy: -49.277132613482166 Kcal/mole
 H      1.6341791530     4.1815297110    -1.4695446949
 F      2.2034474101     4.2418224403    -2.1859157148
 H      1.2229893494     3.9951852583    -3.5098248854
 F      0.5810928309     3.7621239991    -4.1218218698
 H     -2.7456771266     1.9666742067    -0.5078882356
 F     -2.5516575844     1.6133630571     0.3157722824
 H     -2.1032720806     2.3182116054    -2.5119569248
 F     -2.8390603230     2.6082835799    -2.0478848270
 H     -0.9062803539     1.5191599999     0.4889304534
 F      0.0074653969     1.5916475844     0.4624115360
 H      0.3407499720     3.1218948086    -0.0224418613
 F      0.4155657812     3.9714422478    -0.3594296107
 H     -0.2177261327     2.4525153866    -3.5445562497
 F     -0.6752327214     1.7757659455    -3.1279186191
          14
Energy: -49.21566762593281 Kcal/mole
 H      1.5911800737     4.0625909744    -1.4992609082
 F      2.1679620709     4.0526272325    -2.2120808374
 H      1.1986270283     3.9401196514    -3.5274266759
 F      0.5498162789     3.7670401968    -4.1519081519
 H     -2.7396170276     1.9153503396    -0.5043638628
 F     -2.5073754491     1.6257409531     0.3341343497
 H     -2.1901754638     2.1748660832    -2.5694340217
 F     -2.9549140152     2.3701273665    -2.1025968131
 H     -0.8842079662     1.5999556428     0.6527896772
 F      0.0225750408     1.6912607826     0.7542635643
 H      0.3016645347     3.1631755457     0.0613141906
 F      0.3633720900     3.9716475075    -0.3670014226
 H     -0.2289561508     2.4885879688    -3.5555053873
 F     -0.6491133300     1.8017101747    -3.1166935361
          14
Energy: -49.25893825553621 Kcal/mole
 H      1.5134986219     4.0719325793    -1.5101944471
 F      2.1243792277     4.0734926330    -2.1940887749
 H      1.2135975035     3.8575657607    -3.5580908040
 F      0.5767031320     3.6724319309    -4.1913206396
 H     -2.7421893547     2.0492968143    -0.4381426367
 F     -2.5617421120     1.6844976312     0.3835929343
 H     -2.1872431112     2.3058087406    -2.4547935699
 F     -2.9070253429     2.6160691514    -1.9788303188
 H     -0.9199318450     1.6222365240     0.6797836107
 F     -0.0067528123     1.6973945689     0.7164486148
 H      0.2302321247     3.1647191657     0.0046122873
 F      0.2268959844     3.9470122539    -0.4738178479
 H     -0.2927677407     2.4031589159    -3.5325247866
 F     -0.7591030727     1.7673683836    -3.0643466611
          14
Energy: -49.230385907454206 Kcal/mole
 H      1.4391425577     4.0110029663    -1.5829436953
 F      2.0969392340     4.0414248279    -2.2211184699
 H      1.2146215977     3.7787229962    -3.6101757378
 F      0.6015957198     3.5773680556    -4.2617465021
 H     -2.8789465365     1.8536762565    -0.5093952609
 F     -2.6592004043     1.4791761693     0.2982868066
 H     -2.2474465093     2.2234482356    -2.4722660516
 F     -3.0193985371     2.4682750803    -2.0421045902
 H     -1.0450038008     1.5471226081     0.7026237318
 F     -0.1605466774     1.7378779994     0.8517444128
 H      0.0735192800     3.0685719069    -0.0948203555
 F      0.0654868250     3.8055502679    -0.6404277006
 H     -0.2995109569     2.3896928481    -3.5678105005
 F     -0.7430271344     1.7594674659    -3.0708211969
          14
Energy: -49.28383754206986 Kcal/mole
 H      1.4365420701     4.1409325733    -1.5285899089
 F      2.0362455933     4.1754513460    -2.2214485804
 H      1.0864509399     3.9477027998    -3.5545648656
 F      0.4445447826     3.7352873065    -4.1740203874
 H     -2.8539712984     1.8722151908    -0.4671033832
 F     -2.6474575888     1.4974570615     0.3439437377
 H     -2.1739309107     2.2564760464    -2.4169802373
 F     -2.9256742232     2.5358323288    -1.9723106300
 H     -1.0247618527     1.6102689396     0.6445567981
 F     -0.1212099011     1.7504695099     0.7140310436
 H      0.1144103056     3.1909701409    -0.0015613087
 F      0.1433365433     3.9802128622    -0.4675529392
 H     -0.3388103937     2.4194897195    -3.5735863020
 F     -0.7655847573     1.7593682975    -3.1013656430
          14
Energy: -49.239304084128975 Kcal/mole
 H      1.4912570146     4.0555191022    -1.5256114947
 F      2.0778364104     4.0339587285    -2.2301317306
 H      1.1342488874     3.8618287777    -3.6029098763
 F      0.5100812089     3.6919335471    -4.2528631974
 H     -2.8479033776     1.8378929754    -0.4290986960
 F     -2.6099636493     1.5560203985     0.4104378047
 H     -2.2782486077     2.1732716648    -2.4635430976