          14
Energy: -48.0743199038904 Kcal/mole
 H      4.3783930243    -0.9066371616    -0.0266495379
 F      5.0278477954    -1.4593497403    -0.3637048832
 H      5.6077523993    -0.7108248154    -1.7527512246
 F      5.7601477286    -0.2416826634    -2.5257779414
 H      3.4226267578     4.3276660454    -0.6387395428
 F      3.5699467603     4.5378055348     0.2416167554
 H      4.3820237143     3.0078226732    -2.1787736752
 F      3.5260103003     3.3141896193    -2.0593193769
 H      4.0200497290     3.0920484746     0.9473636865
 F      4.3818412613     2.3144609022     1.2719456552
 H      3.6362148011     0.9422353044     0.7377185704
 F      3.2133665774     0.2323752134     0.3399912380
 H      5.8867836684     1.5138003800    -2.3666871229
 F      5.9171506606     2.4122673148    -2.1857893262
          14
Energy: -47.14402117587272 Kcal/mole
 H      2.9731768415    -0.3954088066    -0.2876222404
 F      3.4296406982    -0.6945336439    -1.0245442710
 H      3.8474313466     0.4668141696    -2.0920930530
 F      4.0315581091     1.0288732454    -2.7928611535
 H      4.0120638542     4.0481607427    -0.4698036372
 F      3.1749860233     4.0574162492    -0.0954988944
 H      5.8322457878     3.7207020295    -1.7866270272
 F      5.4964551579     4.2046169707    -1.0838041601
 H      3.0846104413     3.2139320150     1.2951792814
 F      3.0718972065     2.5711702307     1.9490788626
 H      2.3340463823     1.1843969321     1.4023001883
 F      2.1088286363     0.3935541908     0.9964261616
 H      5.3038035339     2.1439451570    -3.0320501987
 F      6.0068339978     2.7311749088    -3.0744575731
          14
Energy: -48.2488406289424 Kcal/mole
 H      4.8743676143     0.8344961046     0.4608271921
 F      5.4736720378     0.9542475006    -0.2228268221
 H      4.8353896983     0.5350858660    -1.7083136933
 F      4.4886387449     0.4362506759    -2.5514532912
 H      3.6393640834     4.3417828215    -1.4316938381
 F      2.9342546830     3.9010227931    -1.0451187084
 H      5.1485111053     4.1608949328    -2.8742633467
 F      5.0657046420     4.7860885861    -2.2085569659
 H      2.8012446148     3.5374099651     0.6411304802
 F      2.7523279821     3.1986117791     1.4918430945
 H      3.2520123156     1.5340520713     1.6877856333
 F      3.6407093944     0.7210249061     1.5181082643
 H      4.8828692317     1.9064141518    -3.3256614881
 F      5.1106261043     2.6900922888    -3.7438293784
          14
Energy: -48.15982152751144 Kcal/mole
 H      4.9785996853     3.2780958190     0.8669314580
 F      4.9597418967     2.4306919636     0.5170170547
 H      5.8603197842     2.2041892186    -0.8792409807
 F      6.3637746184     2.0983266834    -1.6383294825
 H      2.6834668110     3.5566565878    -2.4471847351
 F      2.4188271772     3.1783305595    -1.6548942073
 H      4.1844249649     3.8731653202    -3.9530423322
 F      3.4172311233     4.3271150206    -3.7380254055
 H      2.2443340225     4.2171318934    -0.3034878940
 F      2.2776282761     4.8396638131     0.3689959359
 H      3.9142922469     4.9797994411     1.0574041817
 F      4.7870901324     4.8266150316     1.2933011672
 H      5.7351903866     2.3638295367    -3.1774327758
 F      5.4071366696     2.5784088216    -4.0064234206
          14
Energy: -47.75071769106033 Kcal/mole
 H      4.3450886332     2.8828583276     1.7157831121
 F      5.1032894233     2.6574936090     1.2518528313
 H      5.1669334431     1.1120188845     0.6527086871
 F      5.0687428076     0.3510552595     0.1505314669
 H      2.4194161497     4.0130071962    -1.6145532742
 F      1.7644415444     4.2490518447    -1.0177449378
 H      3.8244096078     2.5419222078    -2.5623772419
 F      3.6905663570     3.4427385683    -2.6696379933
 H      1.9980374113     4.9955210860     0.4557367385
 F      2.2311239741     5.2672307637     1.2999721946
 H      2.5584348568     3.9251293283     2.1554007112
 F      2.9138317429     3.1778852686     2.5506327553
 H      4.6345993034     0.6940059416    -1.3075212112
 F      4.3302945801     0.9601817447    -2.1305874765
          14
Energy: -48.484248491009424 Kcal/mole
 H      6.1308290736     3.7013816521     0.1634242804
 F      6.5696174381     3.5893180868    -0.6339435949
 H      6.3644836877     2.1488108610    -1.5089160085
 F      6.0432628649     1.3406580148    -1.7997684800
 H      2.6121811032     4.2652127483    -2.5214109277
 F      2.7143087098     5.0622547058    -2.0796156471
 H      2.7769771657     2.1953865672    -2.4431902483
 F      2.4184649758     2.7150185457    -3.1082771724
 H      2.7440639920     4.8791210719    -0.3779209825
 F      2.8451593400     4.7349303456     0.5220111067
 H      4.3023287108     4.3112835558     1.1850312829
 F      5.0855661803     3.9344037147     1.4772463609
 H      4.4524725468     1.3195752288    -1.3948650050
 F      3.5813935762     1.5057904781    -1.1770708181
          14
Energy: -48.19459796492069 Kcal/mole
 H      5.3554268747     2.8169535324     0.9108322620
 F      6.1475060647     3.0231627847     0.4973382462
 H      6.0910267351     2.3120633754    -1.0524445495
 F      5.9383751927     1.9345079510    -1.8740517599
 H      3.1609226521     3.9739099441    -2.1859561479
 F      3.7748587705     4.5896956804    -1.8947871771
 H      2.5860838771     1.9588910743    -2.4187173168
 F      2.1912285593     2.7617396022    -2.6197459697
 H      3.0586455939     4.9273975106    -0.4297675458
 F      2.6687824796     4.9236723440     0.4002215356
 H      3.2742886291     3.4468898675     1.0477127410
 F      3.6808164603     2.6469836344     1.2368532725
 H      4.4576278553     1.0583461140    -1.8875804372
 F      3.5897296482     0.7730000696    -1.8087176634
          14
Energy: -48.559237027750356 Kcal/mole
 H      6.6381717817     3.4144900670     0.5846301438
 F      7.2657784051     2.8857591954     0.1754326466
 H      6.7142669172     1.2947526007     0.3777400143
 F      6.2433159656     0.5089274229     0.4174009653
 H      3.2839245791     3.4037878030    -2.4877125205
 F      2.7536441419     3.9947941418    -2.0290152724
 H      4.3939258675     1.5358945988    -2.6753264823
 F      4.3205545689     2.2753627150    -3.2126276619
 H      3.6200722505     5.0532603724    -0.9989125082
 F      4.2154414325     5.5475987854    -0.5069225990
 H      4.8784643410     4.6207803185     0.7473895894
 F      5.3373884843     4.0795659605     1.3282205884
 H      5.1862493456     0.2832618250    -0.8565921289
 F      4.5913957816     0.2869403189    -1.5544636831
          14
Energy: -48.58708647908847 Kcal/mole
 H      6.3708609610     3.5782291375     0.2438220104
 F      7.2125139182     3.2454669217     0.0962462425
 H      7.0634469228     1.5855163871     0.0230621825
 F      6.9239547783     0.6791946084     0.0196307049
 H      3.2110207576     3.1785410793    -2.7705402651
 F      2.5664200298     3.8307395277    -2.7745509409
 H      4.4767143070     1.5134153490    -1.9025215508
 F      4.5887645650     2.3115210545    -2.3399698592
 H      3.4243282329     4.9632268258    -2.0023188766
 F      4.0175726147     5.4380084288    -1.4889646783
 H      4.4369984984     4.4294373288    -0.2288418550
 F      4.7183684290     3.8511341607     0.4248288633
 H      5.3997058861     0.1145823415    -0.6740616759
 F      4.5740493221     0.0814563375    -1.0716580869
          14
Energy: -48.71311198760371 Kcal/mole
 H      4.1670708912     3.8574902672     1.2685729844
 F      4.1537450856     3.0104055376     1.6195129847
 H      5.2036019948     2.0450100914     0.7937501620
 F      5.6270106776     1.4457168657     0.2437849659
 H      2.0006692833     2.6684800635    -1.8746362392
 F      1.5202412725     3.1823475828    -1.2864032080
 H      3.3947745301     1.0359767452    -2.0447844001
 F      3.1527279912     1.6734442988    -2.6579218978
 H      1.9308565328     4.7914862425    -1.2757194480
 F      2.2798201775     5.6353646383    -1.1921573283
 H      3.5142811256     5.5917344829    -0.1006850892
 F      4.1667479654     5.4135739749     0.5185360800
 H      4.5428448218     0.3760815052    -0.4392594832
 F      3.9020742292    -0.0621811175    -0.9273454605
          14
Energy: -48.57187600402267 Kcal/mole
 H      4.1538775234     3.2225441178     1.9806850658
 F      4.6824057647     2.5195943995     2.2403167119
 H      5.3250008775     1.8940885137     0.8989849613
 F      5.5998506418     1.5799700088     0.0824825596
 H      1.6547224432     4.3337886696    -2.3453548683
 F      0.8719060888     4.6392915973    -1.9782642576
 H      3.1561165214     2.6759792368    -2.3474155868
 F      2.9029137235     3.3410387658    -2.9257521376
 H      0.8462386400     3.9469285460    -0.4545677182
 F      0.9522144422     3.5210339359     0.3505856277
 H      2.3218830088     4.0741051587     1.0459060466
 F      3.1620362256     4.3249432872     1.3144424602
 H      4.2125022240     1.4829597548    -0.7478325848
 F      3.3865516419     1.5304131824    -1.1433611023
          14
Energy: -48.45413406659313 Kcal/mole
 H      2.6393780977     3.3990698352     2.0145017160
 F      3.3145852350     2.8811275638     1.6728584440
 H      3.1756129534     3.1066814548    -0.0213454804
 F      2.9511178796     3.2769494633    -0.8939850206
 H     -1.1065435520     4.0348595545    -2.0031231171
 F     -1.5158704078     4.5360337228    -1.3533808773
 H      0.3542309876     2.5212301289    -2.9107560163
 F     -0.2409288229     3.1749007588    -3.1544535902
 H     -0.9143218378     3.8537435382     0.0015715765
 F     -0.4157148508     3.4610096895     0.6634176285
 H      0.6658977828     4.2062973565     1.7480682271
 F      1.3405801025     4.4007492374     2.3378828025
 H      2.0410868314     2.0472257990    -1.7045645531
 F      1.5135055512     1.4814375738    -2.1969370514
          14
Energy: -48.54856112172763 Kcal/mole
 H      1.7137686128     4.5085895665     1.0518422470
 F      2.3899915924     4.0527996188     0.6324772444
 H      2.2722850888     4.0232152202    -1.0420667960
 F      2.0724807711     3.8590217936    -1.9218439003
 H     -1.3742006550     2.9463380957    -1.9266144103
 F     -1.4306583100     3.8101290477    -1.6240144692
 H     -0.2454802842     1.1775597816    -2.3944070420
 F     -1.1432161246     1.3584173657    -2.3469739821
 H     -1.4916422943     3.7178632624     0.0392783011
 F     -1.4684229814     3.6021559252     0.9486526331
 H     -0.3953128735     4.6643006983     1.5926852477
 F      0.3230837992     5.2165389072     1.7334978226
 H      1.7801053440     2.2038553084    -2.2129995447
 F      1.4863029810     1.3352027841    -2.2095407077
          14
Energy: -47.95653384486957 Kcal/mole
 H      1.7157324171     3.7925001064     1.1352638157
 F      2.5317838970     3.5516970893     0.7932654399
 H      2.6702005556     3.0662664880    -0.8527654586
 F      2.6829379089     2.7231155861    -1.7030443649
 H     -1.5349759113     2.2068338214    -2.0799754138
 F     -1.5300948417     2.8723349117    -1.4491240256
 H     -0.5196516691     0.6198148187    -2.7309171942
 F     -1.3828095465     0.8454313796    -2.9429187180
 H     -1.6668372322     2.4742673046     0.1796268581
 F     -1.5591667002     2.3596602531     1.0830433071
 H     -0.5792356712     3.5623399421     1.5617229086
 F      0.0953649311     4.1633784676     1.7184255510
 H      1.6406348485     1.3715925219    -2.0348849478
 F      1.0861581899     0.6490970576    -2.1418659698
          14
Energy: -48.29522117838714 Kcal/mole
 H      0.1228955895     2.6390231874     1.5452761008
 F      0.4830969561     1.8789125776     1.1800695341
 H      0.8732070613     2.0008771897    -0.3908222112
 F      1.0457855940     1.9996018318    -1.2914353487
 H     -1.9992778664     0.7550387956    -0.6219477465
 F     -2.0205220534     1.6717746983    -0.6162058616
 H     -0.8972469855    -0.8864696063    -1.1708976317
 F     -1.7040960640    -0.8732303391    -0.7353424844
 H     -2.8577291658     2.6660048764     0.4600495228
 F     -3.0644885400     3.2553583636     1.1314674464
 H     -1.5782219637     3.8807760117     1.7301305972
 F     -0.7254424373     4.0579566582     2.0169460395
 H      0.8117810217     0.4819984263    -1.7782599589
 F      0.5464431427    -0.3574043358    -2.0349461735
          14
Energy: -48.427565162557215 Kcal/mole
 H      0.1550632910     2.8108193894     1.0051052666
 F      0.4267397611     1.9383408376     0.9285410965
 H      1.5054361926     1.8226123341    -0.3787510209
 F      1.9906693414     1.6819931882    -1.1440379260
 H     -1.9050835237     1.0084089957    -1.7024214470
 F     -2.1616704010     1.8747873667    -1.8587566404
 H     -0.5258189416    -0.5760839360    -1.8214174319
 F     -1.3912718825    -0.5352301400    -1.5210656806
 H     -2.5737313789     2.8575023833    -0.5760766586
 F     -2.7936996331     3.3611325737     0.1579939091
 H     -1.4885593881     3.9696350303     0.9173720788
 F     -0.6778957900     4.2660097113     1.2270098981
 H      1.4281784516     0.3243159422    -2.0086308688
 F      1.0426984213    -0.4433346259    -2.3295775180
          14
Energy: -48.522129615812105 Kcal/mole
 H     -0.4023064916     2.4029549238     1.3983691564
 F     -0.3474314846     1.6628207141     0.8597792518
 H      0.8850415838     1.6530200688    -0.2956802576
 F      1.4064327359     1.6430494653    -1.0499619381
 H     -2.5644069626     2.7738880494    -1.6589821579
 F     -2.6112452049     3.6842605029    -1.5593971447
 H     -1.6115401040     1.1051226567    -2.4110892025
 F     -2.3478493242     1.1065576147    -1.8645220307
 H     -2.6969029292     4.3432087268    -0.0179813918
 F     -2.6230045397     4.6597344313     0.8394796898
 H     -1.3221211653     4.2361149926     1.8419550813
 F     -0.5747510591     3.8488657739     2.2057750464
 H      0.4731711626     1.4263597730    -2.5380576391
 F     -0.1842422063     1.3469865501    -3.1724049839
          14
Energy: -48.387622690338944 Kcal/mole
 H     -0.1353140113     2.9918741683     1.4204003237
 F      0.1986413220     2.1821222098     1.6918125583
 H      1.2054901561     1.6759226198     0.4439602425
 F      1.6521023772     1.4479175761    -0.3237898627
 H     -3.1300332752     2.0737852826    -1.1566842514
 F     -3.5118397503     2.9073435770    -1.1738127507
 H     -1.3286198764     0.9726034708    -1.4320915004
 F     -2.0705388118     0.7856509769    -0.9266272996
 H     -3.4659466101     3.5729394883     0.3690669306
 F     -3.3642862425     3.9171418426     1.2129146117
 H     -1.7138950764     4.3062900785     1.1701818210
 F     -0.8178765230     4.3658570751     0.9844628803
 H      0.5862857897     1.3585478357    -1.5875104881
 F     -0.0205165113     1.4126374307    -2.2728967174
          14
Energy: -48.369127108033865 Kcal/mole
 H      0.2838891895     3.8200242626     0.7302626627
 F      0.4373675342     2.9163669012     0.7574061837
 H      0.9275822925     2.4915991515    -0.7926872424
 F      1.0639043165     2.1539582826    -1.6342951971
 H     -2.7961095062     2.0923541489    -1.4278692644
 F     -2.5882136601     2.9830508860    -1.3620844665
 H     -1.8384633424     0.2057264189    -1.6044878908
 F     -2.7339378835     0.4006942745    -1.5728353790
 H     -2.7272056639     3.7386170282     0.0884207975
 F     -2.7405315467     4.2064796544     0.8769738926
 H     -1.2750160005     5.0908375012     0.9040169564
 F     -0.3964811998     5.3260167920     0.7867296807
 H      0.3245236789     0.7513468227    -1.6967693467
 F     -0.1661586642    -0.0232288013    -1.6844226536
          14
Energy: -48.51522972398499 Kcal/mole
 H      0.5473780471     4.5912053643     1.0514198357
 F      1.1782966482     3.9272935012     1.0061235128
 H      0.8513985144     3.5001918725    -0.5510793486
 F      0.6036299244     3.3808107201    -1.4258638170
 H     -3.3745638656     3.1377851826    -2.6042550918
 F     -3.5271283052     4.0036780058    -2.3437887589
 H     -2.0912066619     1.4183511704    -2.4265593819
 F     -2.7792267886     1.6325252471    -2.9936984920
 H     -2.8929405921     4.1062277209    -0.8203585542
 F     -2.4847909234     3.9754984965    -0.0096719823
 H     -1.4344700609     5.1918203421     0.5733397424
 F     -0.6843591759     5.6972212281     0.7243119406
 H     -0.2551173689     1.9427772179    -1.4082489250
 F     -0.7575734581     1.1757386068    -1.4171172667
          14
Energy: -48.802918612216644 Kcal/mole
 H      0.9714963055     4.8302749637     0.9910790950
 F      1.5820840213     4.4276047539     0.4379712001
 H      0.7599038347     3.5629450005    -0.7902301556
 F      0.3012308952     3.0767231697    -1.4180011854
 H     -3.7424565224     2.7720762329    -0.9441730324
 F     -3.8260329559     3.6370402499    -0.6513569994
 H     -2.4502378909     0.9920381614    -1.2842989400
 F     -3.3115041766     1.2375381690    -1.4813754005
 H     -2.6339260517     3.5787744213     0.4792265760
 F     -1.9248269196     3.3566965548     1.0165801301
 H     -0.9850810648     4.6207465548     1.6333587354
 F     -0.4003682150     5.3042931154     1.8115832647
 H     -0.3381534186     1.5169722618    -1.1062023001
 F     -0.8440575241     0.7647507690    -0.9679530261
          14
Energy: -48.82017881741314 Kcal/mole
 H      0.7615370264     4.2446043347     1.1199759328
 F      1.3053547455     3.5067239467     1.1461259118
 H      1.2359129882     2.6144764933    -0.2266969185
 F      1.0720742982     2.1335778041    -0.9900987356
 H     -3.2458643448     3.8195080114    -1.7192586020
 F     -3.5512793956     4.4831579302    -1.1650208984
 H     -2.1606989501     2.0246154071    -2.0332623756
 F     -2.6187520066     2.5868637477    -2.5944692901
 H     -3.0237325618     4.3449491104     0.3909700397
 F     -2.6067827273     4.2070935058     1.1959779078
 H     -1.2106282301     5.1340097854     1.2018233436
 F     -0.3708468339     5.4571192715     1.0250283594
 H     -0.3888047648     1.3762531063    -0.9730769248
 F     -1.2838514700     1.1802777444    -0.9360087039
          14
Energy: -48.14298739018528 Kcal/mole
 H      0.3725144712     4.0325452632     0.9064656695
 F      1.0266925339     3.3899436540     0.9046673542
 H      0.7599251489     2.3463968609    -0.3489718408
 F      0.4623727889     1.8221228047    -1.0399771281
 H     -4.2652890535     3.0436306119    -0.5929665766
 F     -4.4942358118     3.5441307902     0.1404991373
 H     -2.9861251442     1.7267419250    -1.5883492353
 F     -3.6063400466     2.2972498644    -1.9499334798
 H     -3.4266008674     3.6754217800     1.3946015479
 F     -2.7246572720     3.7808882660     1.9751538790
 H     -1.4518080338     4.6952376647     1.2676328478
 F     -0.7796905167     5.1387184972     0.8289167728
 H     -1.0150690807     1.1093118832    -0.6644543856
 F     -1.8789520961     0.8110544397    -0.5893702123
          14
Energy: -48.305940352907456 Kcal/mole
 H      0.1076581304     3.9348460470     0.2567201945
 F      0.6732827987     3.2152448982     0.3126837646
 H      0.6392666924     2.0254480241    -0.8023729328
 F      0.5357827066     1.3403266680    -1.4030298999
 H     -4.4522902855     2.5968897685    -0.5847187210
 F     -4.8423670777     3.0098841698     0.1351178720
 H     -2.8621914520     1.3152318248    -1.3906168416
 F     -3.5077354959     1.8432648517    -1.7718556248
 H     -3.7097621783     3.8765916526     1.0588727163
 F     -3.0112880793     4.2850017023     1.4904096954
 H     -1.8117187246     4.8357561727     0.4666463429
 F     -1.1746570518     4.9518719679    -0.1826290588
 H     -0.9336630205     0.6478804198    -1.0682370256
 F     -1.7589476894     0.3448969992    -0.8074780139
          14
Energy: -48.475595864362106 Kcal/mole
 H     -0.0855416513     2.8557777521     0.0608405944
 F      0.4607578309     2.1337142641     0.2059963557
 H      0.3144886746     1.0064988383    -1.0113311895
 F      0.0687381761     0.4502929974    -1.6977208419
 H     -4.4585460907     1.7856679568    -1.0000835017
 F     -4.8227819617     2.1924580157    -0.2633725148
 H     -3.2647611265     0.3827135100    -1.9649309435
 F     -3.7339328519     1.1067420440    -2.2756552169
 H     -3.8485125291     2.9725839939     0.8921443403
 F     -3.2323820723     3.4293818637     1.3947455404
 H     -1.9959092847     3.7813623388     0.3178508086
 F     -1.3044530128     3.9448951516    -0.2618337981
 H     -1.3673060230    -0.2499879023    -1.4285011607
 F     -2.1579599741    -0.6989034355    -1.3092108694
          14
Energy: -48.76412719654189 Kcal/mole
 H      0.1725681918     3.9710272160     0.1496832043
 F      1.0300892336     3.6485058428     0.1106111340
 H      0.8899489069     2.4315421866    -1.0011576131
 F      0.6839783218     1.7829574490    -1.6158143923
 H     -4.4395885669     2.2713424402    -0.7922737974
 F     -4.7907638141     2.8294976330    -0.1550707477
 H     -2.8997287059     1.0106744535    -1.4664789683
 F     -3.6566522113     1.3257852207    -1.8771625588
 H     -3.7860544176     3.3189496400     1.0857747286
 F     -3.0971816145     3.5771394647     1.6332062545
 H     -2.0098234605     4.1077669661     0.5025466671
 F     -1.4440397386     4.3927462009    -0.1604500266
 H     -0.7400753634     1.0299183139    -1.0505507108
 F     -1.4808336261     0.7586022795    -0.5830533250
          14
Energy: -48.55592355286795 Kcal/mole
 H      0.2664402510     4.1311414036     0.4867373888
 F      1.0752588384     3.7255448217     0.6357102228
 H      0.9615907829     2.5621383371    -0.4614494316
 F      0.7498351565     1.9605475968    -1.1203402692
 H     -4.4265812476     2.7416177204    -1.2637259469
 F     -5.0284762799     3.1466016167    -0.7028343229
 H     -2.6289301052     1.7972288118    -1.7706546059
 F     -3.2870166512     2.1473864576    -2.3046964779
 H     -4.1740139063     3.9745082348     0.5079109801
 F     -3.6171979474     4.3561716482     1.1285381040
 H     -2.0983495701     4.4863326997     0.4728626346
 F     -1.3506587527     4.4652816467    -0.0576129018
 H     -0.7959075856     1.4767083899    -0.8006143845
 F     -1.6556693566     1.3098326598    -0.5288586341
          14
Energy: -48.71702810480588 Kcal/mole
 H     -0.3760317997     3.7886447685     0.4221589730
 F      0.4020882716     3.4592818896     0.7784429169
 H      0.7609342759     2.1547667592    -0.2125788844
 F      0.7192052116     1.4690561796    -0.8199903482
 H     -4.8244308622     2.0511678199    -0.6753578125
 F     -5.3214033808     2.4041174177     0.0097216700
 H     -2.8143817561     1.3271105932    -1.2492644333
 F     -3.5500488266     1.6626317547    -1.6818248471
 H     -4.3438524406     3.4471303649     0.8198562041
 F     -3.7007473969     3.9782172412     1.2009751258
 H     -2.4170211402     4.1561439635     0.2158574523
 F     -1.7328292901     4.1669749143    -0.3945958242
 H     -0.7747469014     0.8655881691    -0.4752317347
 F     -1.6514473346     0.6717772869    -0.2888914751
          14
Energy: -48.583300149594265 Kcal/mole
 H     -0.7616575089     4.2934841682    -0.1152125881
 F      0.0292521842     3.8373601966    -0.0297621350
 H      0.2249893151     2.3511576939    -0.9808091482
 F      0.0598775853     1.5625253768    -1.4186289573
 H     -4.9097054117     1.7357749824    -0.2368346143
 F     -5.4620794412     2.2602581400     0.2737428518
 H     -3.0552205008     0.5857055942    -0.9028157204
 F     -3.8132774923     0.9464634155    -1.2717227440
 H     -4.5545930557     3.4523731319     1.0400793660
 F     -4.0153154197     4.0783944945     1.4377801140
 H     -2.8889213301     4.6527260690     0.3360237681
 F     -2.2964508357     4.9015388789    -0.3181626723
 H     -1.0411157086     0.6428412272    -0.5794408821
 F     -1.7033679346     0.1906727977    -0.1346322709
          14
Energy: -48.86761472837172 Kcal/mole
 H     -0.4501596681     3.4071248221     0.7045100391
 F      0.3448243638     2.9844559654     0.8784077869
 H      0.3743582514     1.6731585251    -0.2215331461
 F      0.1311884879     1.0503709951    -0.8491422272
 H     -5.0704515227     2.2520520943    -0.6749760547
 F     -5.5406218713     2.7169741771    -0.0396207995
 H     -3.4166895758     0.9029353869    -0.9803743762
 F     -4.0816655182     1.1725981923    -1.5513191785
 H     -4.5924386163     3.2133719132     1.2207983698
 F     -3.9284592070     3.4358538487     1.8128474661
 H     -2.5854590243     3.7933070201     0.9310152830
 F     -1.9307885145     3.9645506510     0.3121686602
 H     -1.3760248890     0.6814207290    -0.3153278278
 F     -2.1900863306     0.5345436678     0.0804247440
          14
Energy: -48.74013958150938 Kcal/mole
 H     -0.6407170889     3.2780816680     0.8901823993
 F      0.1708970155     2.8647938934     0.9967880319
 H      0.3864958945     1.6628268679    -0.1470269132
 F      0.2598167244     0.9525251956    -0.7129888572
 H     -4.9670332772     1.0241720432    -0.3123797010
 F     -5.4417671968     1.2618936115     0.4352867765
 H     -3.1828512278     0.1887695089    -1.0026413813
 F     -3.9024368258     0.5471297273    -1.4438482729
 H     -4.3675449159     1.6893503292     1.5646487850
 F     -3.7315510379     2.0185081842     2.1374104226
 H     -2.8198531967     3.0689016557     1.2481483549
 F     -2.3058880086     3.5706219533     0.6780557936
 H     -1.0906062577     0.1981012611    -0.2820988371
 F     -1.8859630324    -0.1925400096    -0.0460988403
          14
Energy: -48.76263018555055 Kcal/mole
 H     -0.2661047410     3.3290757958     0.4659020853
 F      0.5224844674     2.8644951725     0.4095025753
 H      0.1488167747     1.7415484226    -0.6910210634
 F     -0.1150289352     1.0848344220    -1.2741172500
 H     -4.7383006739     0.9427079848    -0.2121199506
 F     -5.0720064326     1.7250396855     0.1306431990
 H     -2.9798703358    -0.5094535972    -0.3203215807
 F     -3.8289290281    -0.3906595348    -0.6457079783
 H     -3.9474283408     2.1455843165     1.2516284054
 F     -3.2052456414     2.2400934924     1.7818376626
 H     -2.2326888015     3.3967781985     1.1196391157
 F     -1.7568991210     3.9623805133     0.5768618120
 H     -0.8806824595    -0.0873608464    -0.3432705263
 F     -1.4199807109    -0.5390137991     0.2449947254
          14
Energy: -48.840357624449425 Kcal/mole
 H     -0.2143902030     3.0847020052     0.1865326157
 F      0.6898491667     2.9457275850     0.2491925931
 H      0.7432961287     1.4246149263    -0.4224577614
 F      0.6028368539     0.5736125145    -0.7338338799
 H     -4.7677984144     0.6164731178    -0.1378796621
 F     -5.2811374978     1.2202222552     0.3234867482
 H     -2.8715814151    -0.4140698518    -0.4088618003
 F     -3.6699985739    -0.4201966350    -0.8598401845
 H     -4.2974488833     2.1402915534     1.2825674422
 F     -3.7115960512     2.7075866868     1.7019022616
 H     -2.4636592739     2.9526635103     0.6414532425
 F     -1.9029097479     2.9871995768    -0.0832923882
 H     -0.7282370493     0.0243280479     0.0398527488
 F     -1.5036084822    -0.2225059222     0.4626542770
          14
Energy: -48.68755777029314 Kcal/mole
 H     -0.6915968365     2.9622002115    -0.3086030529
 F      0.0694230784     2.4877230745    -0.1172679133
 H      0.0888473909     1.0229389311    -0.9797863137
 F     -0.1120772414     0.2478364406    -1.4267028845
 H     -5.3663859509     1.3089992904    -0.0666057033
 F     -5.7782050269     1.8334366631     0.5628857507
 H     -3.6648247693     0.0518653822    -0.8943629557
 F     -4.4796084268     0.3562635981    -1.1848079894
 H     -4.4814980245     2.5646817994     1.2456328833
 F     -3.7110291734     2.9645384275     1.5412363786
 H     -2.7469662602     3.4969488191     0.3069925364
 F     -2.2361897818     3.6546037327    -0.4380855248
 H     -1.4447012087    -0.3459564936    -0.6321960446
 F     -2.2174518678    -0.5080545379    -0.1658596394
          14
Energy: -49.06920330638869 Kcal/mole
 H     -0.6068132734     3.1832356247    -0.3441282971
 F      0.1040800515     2.6215516652    -0.2025980520
 H     -0.1060998726     1.2332308973    -1.0499419840
 F     -0.2938866746     0.4471444755    -1.4831777795
 H     -5.3237902165     1.1707897437    -0.5713391517
 F     -5.6875435179     1.7126150331     0.0728641481
 H     -3.7366706167    -0.1135778989    -1.2028172942
 F     -4.4490457206     0.2792103592    -1.6260525664
 H     -4.3921597100     2.3728648344     0.8489811508
 F     -3.6135410955     2.6853476380     1.2191116015
 H     -2.6458707318     3.5307144501     0.1511092942
 F     -2.0953860772     3.9158340988    -0.4730209016
 H     -1.5754584756    -0.2655371973    -0.7731778446
 F     -2.3471606930    -0.5426507339    -0.3626016940
          14
Energy: -48.7425949866127 Kcal/mole
 H     -0.2706267020     3.1004392122    -0.4297241262
 F      0.4963569352     2.6283290184    -0.6021685091
 H      0.0177558160     1.2312658259    -1.2616974423
 F     -0.3890920889     0.4587310782    -1.5419720324
 H     -5.3690737077     2.1473906575    -0.8824944016
 F     -5.5945353885     2.8472473713    -0.3345376417
 H     -3.8680259870     0.6582395216    -1.2217388436
 F     -4.6262975471     0.8560007534    -1.6979780024
 H     -4.4732574615     3.0512787242     0.8488645921
 F     -3.7271843061     3.1375992787     1.3749944321
 H     -2.5029550076     3.4595853942     0.3232480926
 F     -1.8541399702     3.7603675312    -0.2507363613
 H     -1.7927882849     0.3624594228    -0.7163027447
 F     -2.5690921302     0.4353068329    -0.2336697634
          14
Energy: -48.82100839855498 Kcal/mole
 H     -0.2591697869     3.3186124498    -0.1733921380
 F      0.3481205537     2.6330557617    -0.2192121083
 H     -0.2719350251     1.7074581360    -1.4034066897
 F     -0.7450894743     1.2355211439    -2.0313313212
 H     -5.3003286135     2.7775901330    -0.7538985656
 F     -5.4345018494     3.6265158411    -0.4341929434
 H     -4.0196597587     0.8891013098    -1.0747586488