          6
Energy: -2.9724106814747415 Kcal/mole
 Ar     9.2753431783     6.6276874884    -0.0935581816
 Ar     8.2499385087     3.2379176339     1.2448632637
 Ar     7.2100352289     6.4045155512     3.0922095664
 Ar     6.6584295648     4.5584718833    -1.9277058044
 Ar     5.6221622703     7.7287713682    -0.1076425351
 Ar     4.6120523132     4.3490070262     1.2724836216
