          6
Energy: -2.8769751698303505 Kcal/mole
 Ar     1.4018139222     7.0493788900     0.1537909486
 Ar    -1.4765638525     5.9457590758    -2.0615953983
 Ar     0.3271162672     3.4029729995     0.0994101438
 Ar     2.1093828102     4.8919527949    -2.9080463813
 Ar     1.0460183048     8.5249700851    -3.3471584793
 Ar    -0.3135353363     5.8217819039    -5.6814374786
