          6
Energy: -0.23422241658860365 Kcal/mole
 Ar     0.6170475888     1.6874506084     9.7993340876
 Ar    -0.2631805347     6.4530447065     7.1289318471
 Ar    -5.6782881913    -7.5132257896    -1.8736798263
 Ar     5.6200916553     4.8316206934    -2.1260602906
 Ar    -1.9752122457    -3.2489472946     7.7683842393
 Ar    -6.1176106875    -1.4922760364     7.6880629063
          6
Energy: -0.08859933864618057 Kcal/mole
 Ar     9.3244716053    -2.3593318211    -5.6072396815
 Ar    -5.6360745572    -5.4047423165     8.5778309050
 Ar    -3.7597115603     3.2674131844    -6.2298276972
 Ar     0.1126166902    -5.6101944115    -8.7458585312
 Ar    -3.0151948771    -8.1939537885     5.0819783653
 Ar     2.7874201423     5.0364727198    -6.7889838333
          6
Energy: -0.5258551527819245 Kcal/mole
 Ar    -5.4266983823     1.5437666525    -6.9874855478
 Ar    -5.6940159979    -1.5386021345    -1.0270235907
 Ar    -5.0089211543     5.2609090352    -5.2456000835
 Ar     4.5809868999    -2.6848637013     2.8513227877
 Ar     6.6695850780    -5.6870177586    -2.4093578775
 Ar     7.8107407077    -4.7320570061     2.9262928119
          6
Energy: -0.6862450073210302 Kcal/mole
 Ar     1.9118918507    -1.3588805236    -3.6509620206
 Ar    -1.3395475200    -5.8633424650    -4.6627899026
 Ar    -1.2464099673    -4.6161102204     4.7557686532
 Ar     1.5150671371    -5.0795136314    -2.0874942112
 Ar     1.7031328213    -7.7258447135     4.9173524088
 Ar    -8.3057241247    -8.9130514460     7.1804273475
          6
Energy: -0.4948588638403378 Kcal/mole
 Ar     4.2808837486    -3.0369877405     4.3113624657
 Ar    -9.1505634457    -7.7459175315     0.2941327561
 Ar    -9.1549352241    -2.9363649184     3.5408928588
 Ar    -8.8485679469     0.8781903517     4.6488498268
 Ar    -2.8507632508    -1.6924067913    -9.8507899180
 Ar     1.9827545694    -0.1627791679     5.0876966983
          6
Energy: -0.6882852239065532 Kcal/mole
 Ar    -1.4198145464    -9.5882129384     3.1782833266
 Ar    -7.9445785636    -1.4497999302     2.0625578834
 Ar    -2.1148783219    -2.8443187948    -5.2782891872
 Ar    -1.3803457633    -0.6353174367     2.5272530536
 Ar    -3.7052782253    -6.5596131668     2.0643182257
 Ar    -4.9616934950    -3.5333680326    -0.7972946462
          6
Energy: -1.1532435021798937 Kcal/mole
 Ar     1.3388188301    -4.0336832187    -6.0264266982
 Ar    -0.7542445997    -0.6901397341    -7.9318702014
 Ar    -8.5826440398    -7.1368617336     8.6352028287
 Ar    -4.4555136184     0.0454069518    -7.1355013147
 Ar     3.3854700317    -6.4984404142    -7.8110629873
 Ar    -3.3234103430    -3.8597412960    -7.2887408385
          6
Energy: -1.679521311107758 Kcal/mole
 Ar    -6.3833818487    -8.3680535571    -5.3369195496
 Ar    -5.7818782724    -4.5910316186    -4.4686869380
 Ar    -8.9507346351    -3.4047183499    -3.0366913695
 Ar    -9.0601900691    -6.7979912274    -2.5293615577
 Ar     9.4700134872     6.5159998119    -8.0549937079
 Ar    -8.6870911453    -5.4946268526    -6.6935105929
          6
Energy: -1.8632661372097323 Kcal/mole
 Ar    -4.2636495014    -9.7263362887    -5.8035614201
 Ar    -7.3399085964    -7.8797477052    -7.6996055060
 Ar    -9.5836650323    -6.1616157105    -5.0221199242
 Ar    -6.1028677072    -6.2739752556    -4.7816649549
 Ar     4.6430015340     6.5184899936     3.9924413792
 Ar    -7.9808775507    -9.7437262154    -4.4031320409
          6
Energy: -2.876833074345932 Kcal/mole
 Ar    -4.4072325476    -9.3518056677    -5.7466318099
 Ar    -7.3731794749    -7.9776148237    -7.6582771953
 Ar    -9.7472906406    -6.2289605190    -5.2297818380
 Ar    -5.9816966712    -6.0537756175    -4.6561872171
 Ar    -4.8050209900    -8.5463803471    -2.0506013472
 Ar    -7.8727871220    -9.3607851251    -4.1417342397
