          16
Energy: -62.30903469415786 Kcal/mole
 H      3.6373679087    -1.0085740772     6.2248522924
 F      3.4841009656    -0.1207810623     6.0539084215
 H      6.1723357104     0.2912717205     0.5236930501
 F      5.9691467247    -0.6028086476     0.5087420821
 H      5.1935496466    -0.9826748956     1.8920835781
 F      4.7795053251    -1.0974155444     2.7022013988
 H      4.6003310960    -2.5916874583     3.4020840345
 F      4.4906873084    -3.3510270635     3.9043495060
 H      5.8845364929     2.2177581832     1.5385445070
 F      6.3863535079     1.8983555409     0.8406543756
 H      4.6966050690     0.8082245070     5.4250395732
 F      5.3794463347     1.2861161103     5.0426308633
 H      5.0879160405     2.1247525670     3.6525629209
 F      4.9413554544     2.5539480613     2.8555684277
 H      4.1847271000    -2.9857411491     5.4878204985
 F      4.0170165609    -2.6113949291     6.3079589518
