          6
Energy: -5.50366429908758 Kcal/mole
 Xe     3.2897923651    -2.2218204578     6.0084132916
 Xe     1.9632415764    -1.1699628380     1.9525029510
 Xe     1.1587922200     1.2700838627     7.6191775321
 Xe     4.1200429379     1.7837231925     4.3847675951
 Xe    -0.1566039498     2.3191525797     3.5644976535
 Xe    -0.9997646971    -1.6911362561     5.1704972627
