          6
Energy: -0.9911828551173644 Kcal/mole
 Xe    -4.1477849740     4.1889150179     4.2980987930
 Xe    -9.5907377404    -0.4162724157     2.9604794541
 Xe    -3.4699400045     6.9069251221     9.3614727447
 Xe     2.4884101290    -8.2284962020     8.7939379481
 Xe    -3.6882292105     1.3756746763     0.9240908715
 Xe    -8.9628287243    -0.1482935823     8.3524749420
          6
Energy: -2.4527767398640896 Kcal/mole
 Xe    -5.4094402509    -3.4447071617     4.1260847016
 Xe    -6.6137866341    -0.2505403503     1.3658770959
 Xe    -5.8024997946     1.0313841632    -5.7478615098
 Xe    -2.4483161258     2.6508264587     1.5099639971
 Xe    -6.1960045334    -5.8072124543    -0.6243035321
 Xe    -1.8125268430    -1.5702224062     1.9784653240
          6
Energy: -3.7127866184487193 Kcal/mole
 Xe     2.1050330209    -5.3153057481    -4.8856064199
 Xe    -0.9081594803    -1.5387600292    -7.0691432744
 Xe     1.5178181738    -6.0252094331    -0.6272111238
 Xe    -2.4391054109    -3.9039482102    -1.5089607007
 Xe    -2.8967613630     1.1793224019    -2.6084314753
 Xe     0.9684423550    -1.3012218232    -3.2227655339
          6
Energy: -3.6818890991520714 Kcal/mole
 Xe     4.7406161026    -1.5281198042     3.2845632088
 Xe     1.8823599777    -4.3757750236    -0.7868892372
 Xe    -1.9062664732    -5.0342378322     0.9107920251
 Xe     1.1171924521    -0.1009919426    -1.6942946493
 Xe     0.3322353970    -1.7957276523     2.3203170456
 Xe     3.8108082368     2.3257598826     0.2463544730
          6
Energy: -4.170788167916741 Kcal/mole
 Xe     5.8856339952     4.2121546410     2.7164184717
 Xe     5.9578257838     1.0817602960    -2.4264791314
 Xe     6.1964664574    -2.0756380747     0.5706517261
 Xe     6.7454262249     4.9047878723    -1.4287708016
 Xe     8.7180527649     1.4265617169     0.6895554144
 Xe     2.5349202252     3.7966461180    -1.1219755888
          6
Energy: -4.834970552903863 Kcal/mole
 Xe    -0.2002611994     3.5794284542     3.6949557449
 Xe     0.6445802413     5.2104858980    -0.4873425908
 Xe     1.2317709096     5.6465843841     7.4826171080
 Xe     3.1761887727     2.0790903468     1.6315217763
 Xe     4.4764595414     2.6109529748     5.9921204081
 Xe     3.0511325632     6.2466719858     3.3780142166
          6
Energy: -4.807153717736222 Kcal/mole
 Xe     5.1246166963    -2.0363178754     5.2878566540
 Xe     1.0893236241    -1.1055473385     4.5199945257
 Xe     3.0148371972     2.1433239473     6.9978522358
 Xe     3.8246181828     1.7780013344     2.5664820459
 Xe    -0.0931447256     3.0353540503     3.6410646652
 Xe    -1.5888670900     0.5203423644     7.3561848629
          6
Energy: -5.402719224808785 Kcal/mole
 Xe     5.7844064011    -2.1294185963     6.1372263854
 Xe     2.0565606760    -3.0540451363     3.8506157853
 Xe     4.7269087286     2.0771918542     6.0406922882
 Xe     4.9741069774    -0.2882479854     2.0820366359
 Xe     1.2848398668     1.2292682484     3.6193889795
 Xe     1.8721605362    -0.7791489359     7.6834899134
          6
Energy: -5.393713340588531 Kcal/mole
 Xe     3.2741613790    -2.2728898440     6.0416786990
 Xe     1.8494929861    -1.3305872068     2.0689804201
 Xe     1.2180488149     1.4916467892     7.6108538836
 Xe     4.1910827671     1.6391699895     4.3177791004
 Xe    -0.1724165642     2.4011518337     3.6571273716
 Xe    -1.1857128452    -1.6051413438     5.1883915032
          6
Energy: -5.50366429908758 Kcal/mole
 Xe     3.2897923651    -2.2218204578     6.0084132916
 Xe     1.9632415764    -1.1699628380     1.9525029510
 Xe     1.1587922200     1.2700838627     7.6191775321
 Xe     4.1200429379     1.7837231925     4.3847675951
 Xe    -0.1566039498     2.3191525797     3.5644976535
 Xe    -0.9997646971    -1.6911362561     5.1704972627
