          14
Energy: -45.32775795395288 Kcal/mole
 H      1.3908723329     2.0854849736     1.7401371939
 F      0.6825865900     2.1643498156     2.3171992730
 H      0.1695844729    -1.2626110658     1.9337684682
 F      0.9304865599    -1.2117442133     2.4430125917
 H     -1.4210783652    -0.1501962332     0.9721587704
 F     -1.1000647912    -0.9969269537     0.8276375874
 H     -2.5561345060     3.0191591979     1.0774485837
 F     -3.0074801049     3.8158224539     1.0274105306
 H     -0.7972126734     1.7850914089     1.6149091274
 F     -1.5881664931     1.5115156795     1.2401593771
 H      2.2870435104    -1.0028336001     1.5158478930
 F      2.9851134391    -0.7382311203     0.9833322573
 H      2.7848511774     0.9016153780     0.6485673989
 F      2.5262708366     1.7783144950     0.5749205012
          14
Energy: -45.389813017373015 Kcal/mole
 H      1.3381624048     2.1505781611     1.9707438263
 F      0.5820939877     2.0811945406     2.4849767131
 H      0.1682258279    -1.4404692695     1.8853402397
 F      0.9515847667    -1.5809996990     2.3408498131
 H     -1.4688903841    -0.0517369238     1.1636822364
 F     -1.2258128746    -0.9293256157     1.0557914945
 H     -2.7080593305     3.0040982452     1.4815158900
 F     -3.1527334435     3.8043003771     1.5347181583
 H     -0.9504846470     1.8986612018     1.8550814593
 F     -1.7159500415     1.6225952744     1.4323057106
 H      2.3808165142    -1.0699522033     1.6387699756
 F      3.0894497932    -0.6863567911     1.2010686670
 H      2.8879943925     0.9980160060     1.0167717257
 F      2.6697343281     1.8886544544     1.0206055874
          14
Energy: -45.438848443177065 Kcal/mole
 H      1.2759286577     2.3024121173     1.6955536726
 F      0.5739966413     2.4239704978     2.2729651416
 H      0.1324426832    -1.2847290024     1.9191161450
 F      0.8054960560    -1.3918368084     2.5326437118
 H     -1.3307483029     0.0937669223     1.0226668698
 F     -1.0086874991    -0.7257889262     0.7667488167
 H     -2.7519358611     3.0412363927     1.4974311220
 F     -3.2166069965     3.8271598187     1.5828366509
 H     -0.9485187947     2.0155104742     1.8081612385
 F     -1.7352932727     1.6718532037     1.4860205841
 H      2.1936221450    -1.0280958937     1.6520925864
 F      2.8845544444    -0.7350096954     1.1252130575
 H      2.6415620815     0.8615338908     0.7568990506
 F      2.4116456953     1.7378586768     0.6151869311
          14
Energy: -45.49738244032588 Kcal/mole
 H      1.1738036379     2.1908252768     1.6370862677
 F      0.5509206287     2.3376724879     2.2938523245
 H      0.0636619311    -1.2699346322     2.0367327110
 F      0.8021930835    -1.3270214148     2.5772896795
 H     -1.4863940294     0.0833288213     1.1252582868
 F     -1.2370199555    -0.7940690622     1.0310535876
 H     -2.6028171046     3.1724251795     1.1470743237
 F     -3.0711956965     3.9550215101     1.0519245578
 H     -0.9249913850     2.0268985263     1.7404746287
 F     -1.7156788942     1.7502802520     1.3674001147
 H      2.1877116336    -1.0059488412     1.6971887151
 F      2.8568753858    -0.7473728350     1.1260080767
 H      2.5103371703     0.8014720268     0.6863759933
 F      2.1818825259     1.6262698739     0.4567783930
          14
Energy: -45.59024336999205 Kcal/mole
 H      1.2170383441     2.1792176650     1.7058642603
 F      0.6144622420     2.3456664436     2.3767486358
 H      0.0259807834    -1.3785659921     2.1233340255
 F      0.8211064910    -1.4661948941     2.5716478493
 H     -1.5149423558     0.0315045266     1.2844344959
 F     -1.2579671432    -0.8438180225     1.1913583168
 H     -2.4774535521     3.1998184493     1.2000044515
 F     -2.7550994022     4.0632503007     1.0647742038
 H     -0.8945967122     2.0031532996     1.8561475672
 F     -1.6941547192     1.7099376413     1.5161173167
 H      2.1422273602    -1.1349886793     1.6056448273
 F      2.8188971819    -0.7928159213     1.0899659000
 H      2.4573560848     0.7556386869     0.6207388780
 F      2.1623715327     1.6104245779     0.4683768273
          14
Energy: -45.535072745297484 Kcal/mole
 H      1.2395974748     2.1794058935     1.7739160652
 F      0.5867482073     2.3992038512     2.3791975632
 H     -0.0017530426    -1.1801726139     2.1715684445
 F      0.8002769348    -1.1999283449     2.6156930064
 H     -1.5855377148     0.0791672331     1.3461796686
 F     -1.3664778962    -0.8095631934     1.2908621756
 H     -2.4357656704     3.2866847226     1.2418122861
 F     -2.6222252440     4.1697040242     1.0793353941
 H     -0.9349548381     2.0542350802     1.8281769340
 F     -1.7501340806     1.7638016466     1.5248285809
 H      2.1401582898    -1.0669042932     1.6561404692
 F      2.8244135256    -0.8769022912     1.0759827220
 H      2.5354774004     0.6940001644     0.6878725496
 F      2.2602617530     1.5631088441     0.5889005825
          14
Energy: -45.61267206805945 Kcal/mole
 H      1.2801415899     2.1783410569     1.8263859290
 F      0.6246033664     2.3266595283     2.4502130433
 H     -0.0911405799    -1.1757157635     2.1942893252
 F      0.7040271230    -1.2362086463     2.6469900379
 H     -1.6211598663     0.1167417481     1.3844918324
 F     -1.4312808826    -0.7770543146     1.3072676793
 H     -2.5374742236     3.3065402422     1.4008654762
 F     -2.8398407216     4.1680718792     1.3158552451
 H     -0.8955598589     2.0614066146     1.9328854728
 F     -1.7133358055     1.8163271919     1.5981205140
 H      2.0210268582    -1.0804803657     1.6425765944
 F      2.6820570344    -0.8665629938     1.0441056560
 H      2.5778644898     0.7440309264     0.7724624885
 F      2.3458260562     1.6257283153     0.6741930634
          14
Energy: -45.625258121528816 Kcal/mole
 H      1.2906672371     2.1912193424     1.8584102039
 F      0.6144058835     2.3610169297     2.4540009702
 H     -0.0614823955    -1.1169919942     2.1856912312
 F      0.7200036684    -1.1925347845     2.6594652477
 H     -1.5748410454     0.1861017298     1.2625233780
 F     -1.3342680842    -0.6964600205     1.1985045747
 H     -2.5415584199     3.3579809514     1.3991115880
 F     -2.8579053968     4.2166795556     1.3403723560
 H     -0.9039831480     2.1085114509     1.8368639734
 F     -1.7107067440     1.8515354430     1.4846575411
 H      2.0572426209    -1.0945923971     1.6857759217
 F      2.7183222432    -0.8718614734     1.0905837943
 H      2.5874457310     0.7515062055     0.7725074087
 F      2.3653481146     1.6381352395     0.6986791978
          14
Energy: -45.66893780356128 Kcal/mole
 H      1.2706302013     2.1849523102     1.8381967491
 F      0.6154688019     2.3613493813     2.4550732473
 H     -0.0486736472    -1.1141056497     2.1735956225
 F      0.7160177491    -1.1998002759     2.6723866604
 H     -1.5706215699     0.1798711693     1.2852367229
 F     -1.3355205473    -0.7007803213     1.1848900177
 H     -2.5422340386     3.3704239887     1.3228260918
 F     -2.8986552428     4.2152857068     1.3149773666
 H     -0.8914436850     2.1156951318     1.8364269214
 F     -1.6965466167     1.8776546434     1.4675976992
 H      2.0973422508    -1.0740343991     1.7298956987
 F      2.7602464846    -0.8508213883     1.1369176818
 H      2.5692269242     0.7650601315     0.8108186491
 F      2.3393967765     1.6453880233     0.6964075216
          14
Energy: -45.70994927625753 Kcal/mole
 H      1.2810637946     2.1838076202     1.8498144393
 F      0.6149153239     2.3614101044     2.4544569557
 H     -0.0468872892    -1.1299186553     2.1687733495
 F      0.7179156813    -1.2199582456     2.6666270312
 H     -1.5549174090     0.1864534851     1.2591785628
 F     -1.3363536167    -0.7011294980     1.1862723429
 H     -2.5483282273     3.3682311870     1.3402802638
 F     -2.8983319602     4.2154020298     1.3140514631
 H     -0.8979861215     2.1315241230     1.8400546264
 F     -1.6961995556     1.8768149520     1.4674052578
 H      2.0886396512    -1.0850700677     1.7156573341
 F      2.7607081374    -0.8502359716     1.1376729941
 H      2.5732393658     0.7661191448     0.8108276645
 F      2.3391839258     1.6453318451     0.6964070433
