          14
Energy: -45.55079737198534 Kcal/mole
 H      1.2543529078     2.1887248637     1.7632258480
 F      0.6377232409     2.3626045740     2.4192919271
 H     -0.0878309355    -1.1508261502     2.2462374231
 F      0.7085231554    -1.3097677154     2.6722030798
 H     -1.6410715513     0.2180934766     1.4462482552
 F     -1.4714660352    -0.6823274144     1.4092998054
 H     -2.3204363065     3.4962963507     1.0722900632
 F     -2.6081177062     4.3444712403     0.8754963415
 H     -0.8495148042     2.1599144512     1.7987967701
 F     -1.6584253273     1.9319471668     1.4319402819
 H      2.1249814817    -1.0763557314     1.7698907781
 F      2.8135142268    -0.7821871788     1.2404792921
 H      2.5015448480     0.7688334918     0.7276999474
 F      2.1476293170     1.5837065356     0.5005112166
          14
Energy: -45.409228761661964 Kcal/mole
 H      1.2789250123     2.3001018174     1.6421204572
 F      0.6661103797     2.5906631330     2.2593087169
 H     -0.1981821221    -1.1897751283     2.1972408809
 F      0.6107395649    -1.3619987466     2.5933137652
 H     -1.7185362455     0.2448514981     1.4812912519
 F     -1.5356451585    -0.6458626653     1.3626821063
 H     -2.6587433548     3.4057711566     1.4529623406
 F     -3.0546671102     4.2130593001     1.2729089227
 H     -0.9222902590     2.2436691989     1.8769012384
 F     -1.7493552173     1.9368378908     1.6264873747
 H      2.0204309593    -1.0183527384     1.7532064041
 F      2.7649662549    -0.7773802626     1.2752017394
 H      2.4989152454     0.7357175914     0.7003613537
 F      2.1708263815     1.5579144648     0.4611146217
          14
Energy: -45.431797271920146 Kcal/mole
 H      1.2402195437     2.2641741138     1.5263217360
 F      0.6988542434     2.5139692826     2.2230390282
 H     -0.1050694503    -1.2036173745     1.9409657169
 F      0.6720605434    -1.4002735765     2.3862569824
 H     -1.6569632949     0.3162186859     1.3921178897
 F     -1.5297134636    -0.5720411921     1.2031976169
 H     -2.6411746412     3.4911855665     1.5325391223
 F     -2.9774268932     4.3416189094     1.4648150320
 H     -0.9109926543     2.2414174758     1.8871383838
 F     -1.7568865266     1.9745440970     1.6544773504
 H      2.1915754214    -1.0220539577     1.7777783214
 F      2.9509433888    -0.6882273023     1.3868703345
 H      2.4866935272     0.7052511652     0.6522262180
 F      2.1160969865     1.4873757023     0.3491941857
          14
Energy: -45.51065456460489 Kcal/mole
 H      1.2732541587     2.2358264884     1.5845300458
 F      0.6790185096     2.4423820478     2.2516940393
 H     -0.0227193261    -1.0079096567     2.0403573806
 F      0.7492785198    -1.1888971840     2.5009568171
 H     -1.5239024236     0.3478807388     1.1702904521
 F     -1.2821318195    -0.5294122359     1.0571842561
 H     -2.4364955981     3.5649473784     1.3291805050
 F     -2.7004991314     4.4426612425     1.3576323451
 H     -0.8665337817     2.2772158074     1.7745590808
 F     -1.6940794097     2.0389804781     1.4594382127
 H      2.1758464275    -0.9644852906     1.6564917885
 F      2.8818351408    -0.7127563958     1.1281912110
 H      2.4156822109     0.7326082298     0.5045676902
 F      2.0662025264     1.5415192904     0.2507649198
          14
Energy: -45.61379646285019 Kcal/mole
 H      1.3036034865     2.2996699715     1.5215069974
 F      0.6989595714     2.4763857095     2.1878899833
 H     -0.0013536928    -1.1332248137     1.9255322894
 F      0.7180803424    -1.3384651144     2.4557964575
 H     -1.5172517650     0.3905130028     1.0998070057
 F     -1.2236074314    -0.4622574072     0.9341427875
 H     -2.3877976256     3.6084856775     1.2548201266
 F     -2.6104958239     4.4903922697     1.1384789250
 H     -0.8528348588     2.2763814821     1.7138820763
 F     -1.6936795832     2.0474074673     1.4285050451
 H      2.1078849868    -0.9787968965     1.6218889495
 F      2.8125390225    -0.6821242319     1.1155915862
 H      2.5398093069     0.8423676057     0.5230592696
 F      2.2463595129     1.6861728296     0.3162526869
          14
Energy: -45.62012286337958 Kcal/mole
 H      1.2895176382     2.2730389602     1.5559418322
 F      0.6951181565     2.4360497682     2.2349158616
 H     -0.0940622154    -1.1751094891     1.9416109478
 F      0.6458836134    -1.4517085594     2.4072955242
 H     -1.5468317814     0.4201227641     1.2145969229
 F     -1.3394312483    -0.4585717514     1.0540666537
 H     -2.6098880448     3.5441871111     1.5330072734
 F     -2.9599105072     4.3868731181     1.6238564314
 H     -0.8760326642     2.3129687907     1.7902543684
 F     -1.7158374099     2.0770015508     1.5075240182
 H      2.0995148883    -1.0040699782     1.6772105447
 F      2.8095465273    -0.6570345663     1.2121186242
 H      2.4850488354     0.8420221812     0.5354129019
 F      2.1892131898     1.6712931519     0.2791319469
          14
Energy: -45.65071171569349 Kcal/mole
 H      1.2515371557     2.2393284338     1.5076268070
 F      0.7027211234     2.4499303744     2.2114284733
 H     -0.1128063496    -1.1659987127     1.9605018669
 F      0.6442186165    -1.3905884397     2.4267224749
 H     -1.6486754763     0.3927188136     1.2616673813
 F     -1.4239520962    -0.4868661410     1.1323665307
 H     -2.4459223235     3.6368203514     1.5273642469
 F     -2.6763018839     4.5225263455     1.5851496278
 H     -0.8984312833     2.2754565398     1.8169175614
 F     -1.7509850030     2.0702383761     1.5487260995
 H      2.0574646135    -1.0461112038     1.5800764514
 F      2.7404388167    -0.7186104170     1.0631833556
 H      2.4127014983     0.7942385213     0.4949827845
 F      2.0949280155     1.6190221620     0.2507677978
          14
Energy: -45.65378736067437 Kcal/mole
 H      1.2359590900     2.2661121979     1.5102051212
 F      0.6841232197     2.4585766292     2.2168334641
 H     -0.1509246419    -1.1354589026     2.0193409528
 F      0.6236820312    -1.3024309271     2.4808535150
 H     -1.6610528654     0.3751862619     1.2572339824
 F     -1.4259127572    -0.4957094062     1.0924952047
 H     -2.4922325086     3.6144190255     1.5993184995
 F     -2.7278575693     4.4974411577     1.6744300482
 H     -0.9035406770     2.3026823649     1.8107455250
 F     -1.7507139615     2.0687941089     1.5490535118
 H      1.9687049630    -1.0103072848     1.5737258330
 F      2.6696078437    -0.7375387784     1.0491102653
 H      2.3901066315     0.8073954159     0.4789632330
 F      2.0803994871     1.6338883906     0.2302066301
          14
Energy: -45.70215591882213 Kcal/mole
 H      1.2438585778     2.2757375216     1.5015352069
 F      0.6827746943     2.4916241579     2.1939706449
 H     -0.1391540908    -1.0907550602     2.0181981928
 F      0.6230576307    -1.3048023626     2.4809141358
 H     -1.5947741138     0.4360016030     1.2207970142
 F     -1.3672539622    -0.4378145979     1.0608944577
 H     -2.4966350593     3.6172152884     1.5838403918
 F     -2.7380784531     4.4975246808     1.6713015896
 H     -0.9058713174     2.3048395503     1.8162805615
 F     -1.7505903264     2.0686796752     1.5487598909
 H      2.0060020373    -1.0013595086     1.6068707196
 F      2.6982353383    -0.7224866756     1.0740180196
 H      2.3808702662     0.8003639163     0.4664858177
 F      2.0808894549     1.6342613954     0.2308685281
          14
Energy: -45.728981499352116 Kcal/mole
 H      1.2365265876     2.2756758029     1.4956802482
 F      0.6831636394     2.4916274320     2.1942812370
 H     -0.1342546351    -1.0872579108     2.0118326163
 F      0.6227977259    -1.3049878783     2.4812518149
 H     -1.6038562317     0.4157140561     1.2471354228
 F     -1.3786893991    -0.4600424891     1.0946907732
 H     -2.4981909485     3.6150361694     1.6039579738
 F     -2.7379959168     4.4976402781     1.6702343984
 H     -0.9017306265     2.3027640021     1.8047335745
 F     -1.7508099805     2.0687897783     1.5493724319
 H      2.0091450003    -1.0098965595     1.6064038411
 F      2.6980686114    -0.7220338048     1.0740427865
 H      2.3785219489     0.8010026617     0.4716631399
 F      2.0810140277     1.6342275114     0.2305938831
