          14
Energy: -45.70994927625753 Kcal/mole
 H      1.2810637946     2.1838076202     1.8498144393
 F      0.6149153239     2.3614101044     2.4544569557
 H     -0.0468872892    -1.1299186553     2.1687733495
 F      0.7179156813    -1.2199582456     2.6666270312
 H     -1.5549174090     0.1864534851     1.2591785628
 F     -1.3363536167    -0.7011294980     1.1862723429
 H     -2.5483282273     3.3682311870     1.3402802638
 F     -2.8983319602     4.2154020298     1.3140514631
 H     -0.8979861215     2.1315241230     1.8400546264
 F     -1.6961995556     1.8768149520     1.4674052578
 H      2.0886396512    -1.0850700677     1.7156573341
 F      2.7607081374    -0.8502359716     1.1376729941
 H      2.5732393658     0.7661191448     0.8108276645
 F      2.3391839258     1.6453318451     0.6964070433
