          4
Energy: -2.5979437059577197 Kcal/mole
 Xe     3.3844028136     1.6779016749     4.5909819096
 Xe     0.2927400988     2.0833703791     7.7191943174
 Xe    -0.4768733116    -0.4123827058     4.1548411595
 Xe    -0.2840795097     3.9869003620     3.7744628319
