          4
Energy: -2.597921052162526 Kcal/mole
 Xe     3.9810727290    -3.4673208855    -7.0054013113
 Xe     4.8844410725    -4.4588250656    -2.7914742470
 Xe     0.6906107915    -4.0095246010    -4.1155132930
 Xe     3.3079848211    -0.4621297422    -3.8324278282
