          4
Energy: -2.597837197980766 Kcal/mole
 Xe    -0.9975736291     4.9382774431    -2.2429644463
 Xe     0.2244260187     8.0067612980    -5.1817580770
 Xe    -3.6400009057     8.3924082235    -3.0544065470
 Xe     0.1526925617     8.9794815259    -0.8729614832
