          4
Energy: -0.06582862960073398 Kcal/mole
 Xe     4.9464832026     4.7276505944    -1.6121409950
 Xe    -2.8578192344    -0.0695680033    -3.3672418696
 Xe     1.9183444377     2.3337684622     5.5505447227
 Xe    -0.6106773122    -5.5169580315     3.7940186325
