          4
Energy: -2.597711230589821 Kcal/mole
 Xe    -5.5971136593     6.4894729221     2.9183475990
 Xe    -4.4738515149     3.7930366429    -0.3995256238
 Xe    -6.4694694338     7.6493618330    -1.2427588024
 Xe    -2.2852286038     7.5703186225     0.1977095402
