          2
Energy: -0.2339000001381092 Kcal/mole
 Ar     0.0185182104    -1.1878109896     3.7435468548
 Ar     2.2537889734     1.2323508158     1.8149137193
