          2
Energy: -5.610359380353565E-4 Kcal/mole
 Ar     1.0565625161    -4.7469719142    -6.8125286724
 Ar    -0.8525066133     0.5339593155     3.4639381664
          2
Energy: -0.003207008288274628 Kcal/mole
 Ar     0.4017370317    -5.8009939541    -6.0932269523
 Ar    -2.5204972776     2.2786988833    -4.4182912666
          2
Energy: -6.604483455927146E-4 Kcal/mole
 Ar    -6.3413446468    -4.0408200830     6.3109221843
 Ar    -7.1946502396    -4.7641977063    -5.0303453324
          2
Energy: -0.022556077835844075 Kcal/mole
 Ar     0.9258057929     2.5285497246    -0.2771075569
 Ar     3.2991722366     7.0690564074    -3.9455904858
          2
Energy: -8.138834714667242E-4 Kcal/mole
 Ar     4.1531573075    -2.7975252454    -4.8598678310
 Ar    -1.7397325427     6.4050349646    -6.1713277099
          2
Energy: -1.571185838806387E-4 Kcal/mole
 Ar     5.8351364870     6.7819953611    -5.3239108914
 Ar    -1.3183862428    -1.5258218636     4.1338065410
          2
Energy: -0.0047891485401462324 Kcal/mole
 Ar    -1.3740472252     4.3005643180    -3.0007820596
 Ar     5.6965229850     0.2355243212    -2.3059119301
          2
Energy: -0.23374537570724954 Kcal/mole
 Ar     3.2454886352     4.7873940452    -3.7161479486
 Ar     0.4544555945     2.9469880904    -1.9068673142
          2
Energy: -0.23161985405648483 Kcal/mole
 Ar    -0.9610235694    -2.4477619264     4.1612790394
 Ar     0.4389211552     0.9455458323     3.3559355679
          2
Energy: -0.23390000013943255 Kcal/mole
 Ar    -3.0064487082    -0.9893950634     3.0857332259
 Ar     0.3958551662     0.7312316493     3.2781547790
