          2
Energy: -0.23390000001581912 Kcal/mole
 Ar     1.3089491398    -0.3291003483     6.3751740504
 Ar     4.6299925978    -1.9965442258     5.5014202911
