          2
Energy: -0.23390000013943255 Kcal/mole
 Ar    -3.0064487082    -0.9893950634     3.0857332259
 Ar     0.3958551662     0.7312316493     3.2781547790
