          2
Energy: -0.23390000006268627 Kcal/mole
 Ar     2.0862845071    -1.8427163015    -4.6217357799
 Ar     3.2638177467    -5.4495904148    -4.2009714259
