          2
Energy: -8.606851832938219E-4 Kcal/mole
 Ar     1.7154051378    -6.6514747231    -5.1753337678
 Ar     6.8392065494    -5.9404354122     4.4233958670
          2
Energy: -2.1122501379907234E-4 Kcal/mole
 Ar     6.4205297065    -6.4880723142    -1.0635187931
 Ar    -0.1210501044     4.4267921594     4.2297695355
          2
Energy: -0.02297726397398659 Kcal/mole
 Ar    -2.0318290879    -0.8745256865    -5.2081767384
 Ar    -4.4317987698     4.9153009773    -5.6257688500
          2
Energy: -5.118085233309407E-4 Kcal/mole
 Ar     7.0877143957    -0.4431061007     6.6515569973
 Ar    -3.3478852384    -6.0759194220     5.7719918704
          2
Energy: -0.0023796204456751424 Kcal/mole
 Ar    -6.9748841518    -1.7238653686     5.3176006546
 Ar    -2.0209687833     3.2442340975    -0.6357029340
          2
Energy: -4.1437322899673466E-4 Kcal/mole
 Ar     6.9227449449    -0.7248918522    -2.9534330853
 Ar    -0.5121998547     4.3743765547     5.4394851533
          2
Energy: -0.2117846272456314 Kcal/mole
 Ar     3.1411702038     1.1025683048    -0.0181312623
 Ar     6.9496127168     2.5053618182    -0.0168534103
          2
Energy: -8.557037812557883E-4 Kcal/mole
 Ar    -3.2815021882     2.8603206995    -4.8523597752
 Ar    -6.4128503460    -6.6527050076    -0.5139261850
          2
Energy: -0.20172804603138828 Kcal/mole
 Ar    -0.1803953218    -0.9457334432     3.8647858676
 Ar     2.1285091373     1.2895580625     1.2802064894
          2
Energy: -0.2339000001381092 Kcal/mole
 Ar     0.0185182104    -1.1878109896     3.7435468548
 Ar     2.2537889734     1.2323508158     1.8149137193
