          2
Energy: -0.008066801778246467 Kcal/mole
 Ar    -3.1020977274    -3.9935544617    -0.1722560580
 Ar    -2.7507254316     3.4976117198    -0.1154112485
