          30
Energy: -86.83621523583639 Kcal/mole
 H     -3.9687313061    -3.1524542768     5.6996297079
 F     -4.3327506398    -2.3115719422     5.7356272642
 H     -0.1183102375    -3.0827425220    -5.1393787075
 F      0.4199157295    -2.3418454907    -5.1870588644
 H     -2.7722246311    -4.0903031585     3.3771909291
 F     -2.7477503805    -4.3246186461     4.2634111407
 H     -1.4844764692    -3.7423175674     1.5653552101
 F     -2.3731437400    -3.8243171587     1.7761526219
 H      4.1516361137    -2.1439281138     0.7787748024
 F      4.3631746030    -2.7643752369     1.4200125391
 H     -0.9488461991     0.0165158553     5.9547317748
 F     -0.4427361181     0.5439984855     5.4011040472
 H     -2.6797935401    -4.0216737586    -4.2873371132
 F     -1.8797654300    -3.8184758678    -4.6867800257
 H      1.4289346414    -1.8055060253    -3.6690055811
 F      1.8645431098    -1.8377894621    -2.8627227263
 H      3.0837404583    -3.8094508093     1.8565008684
 F      2.4746123405    -4.3835396843     2.2310324422
 H     -2.8163849533    -1.3718462876     6.3155722825
 F     -1.9350348220    -1.2509015867     6.5380207606
 H      0.7672923643    -3.9300384901     1.7142610285
 F      0.0765298780    -3.4682511339     1.3263323942
 H      1.8787577245    -0.3958484754     2.7368673084
 F      1.4519562105    -0.9424437262     2.1368980596
 H      2.2684126668    -1.4467036462    -0.8303432503
 F      3.0280181627    -1.3235869859    -0.3316140869
 H      3.3304136662     0.6936986085     5.9166475031
 F      3.8720219493     0.7351994677     6.6554486580
 H      1.0780776738     0.4054384069     4.7634706008
 F      1.8981652878     0.7702176382     4.5756371163
          30
Energy: -93.10922886361723 Kcal/mole
 H     -4.9638355084    -4.2449980969     4.9418195986
 F     -4.9818578609    -4.1655421731     5.8551929894
 H      5.5815651304    -3.9707515292    -0.0258805685
 F      5.3188897050    -3.8350387716    -0.8939086028
 H     -3.4092235254    -4.4942720272     3.0964139066
 F     -4.3041113413    -4.5019213280     3.2964296188
 H     -1.6111291200    -3.1108942177     2.3562424839
 F     -1.8877720260    -3.9574461967     2.5746628342
 H      5.9459318017    -0.3688870962     0.6923824088
 F      6.2441950948    -0.8963090314     1.3806803895
 H     -2.5530449891    -0.4703747494     6.5815982039
 F     -1.7370171859    -0.1649145658     6.2957980978
 H      1.7156222538     0.3654690733     1.1732505377
 F      0.8320520597     0.1213511768     1.1977283769
 H      5.7132208987    -2.1910623321    -1.2861308913
 F      5.7239261331    -1.2741280456    -1.2836993991
 H      6.0248278277    -2.8739793624     1.9703338799
 F      5.8559511535    -3.7406170533     1.7227277781
 H     -4.1044355904    -2.3298365826     6.2273534634
 F     -4.0143723854    -1.6110516512     6.7896041561
 H     -0.7356336711    -1.3964795093     1.3251825430
 F     -1.4944170861    -1.9101581493     1.2895316834
 H      3.1318467311     2.5210930166     4.2245176271
 F      2.8810190971     2.7037724000     3.3616139587
 H      3.5514501893     1.7135295197     2.0562054765
 F      3.4893520921     0.9692205718     1.5241932431
 H     -0.5251983453     1.2400269717     5.7761757628
 F     -0.0734586903     1.9839468071     5.4873790131
 H      1.6778583659     1.9608918917     5.6284542547
 F      2.5643146709     1.9704004464     5.8629618383
          30
Energy: -100.38144025127188 Kcal/mole
 H     -6.7009551053    -3.7521256093     3.4405881733
 F     -6.3071914095    -3.5599572175     4.2461379614
 H      4.4289442449    -6.1872636910    -2.5495438733
 F      4.8057448829    -6.1733042447    -3.3854358598
 H     -6.7069615059    -3.9000303459     1.2728396820
 F     -7.2720149940    -3.5400067029     1.8989279600
 H     -4.2579547754    -3.6401143945     0.4966036082
 F     -4.9588257504    -4.1931494322     0.2872686527
 H      4.8142558253    -2.1413553451    -2.5232873321
 F      4.2336755368    -1.6333597778    -2.0275494657
 H     -3.5043823232    -1.2039601976     5.9489032700
 F     -2.6764804262    -0.9499631070     5.6473192403
 H     -0.6524978457    -0.4389046040    -0.4432428816
 F     -0.8049876908    -1.3156923426    -0.6643290832
 H      5.5967704846    -4.1589756719    -3.5319535004
 F      5.6393455529    -3.4422422727    -2.9615417210
 H      3.3798623691    -5.0285177937    -1.0820810901
 F      3.4175287658    -5.9034465120    -1.3540553174
 H     -5.6557577389    -2.4155022480     5.1747211750
 F     -5.1225554264    -1.8185643970     5.6222136286
 H     -2.1155128489    -2.3661571299    -0.1858696235
 F     -2.7275076073    -2.7683353536     0.3660398727
 H      0.1639268986     0.8801756093     0.7907586911
 F     -0.0147074610     0.9734338323    -0.1038259440
 H      3.6504059455    -2.7098473559    -0.9129993303
 F      3.5176788545    -3.4894108703    -0.4487222078
 H     -2.0430680273    -1.2009849881     4.2722490553
 F     -1.7379582688    -1.2494547281     3.4088559122
 H     -0.2697448970    -0.4738328787     2.8866407862
 F      0.1325175223     0.2569553698     2.5058226120
          30
Energy: -97.26886811465782 Kcal/mole
 H     -6.6992758792    -4.2026109450    -0.7434146477
 F     -6.8214866564    -3.3067044059    -0.5907548979
 H      3.5910838347    -7.2244474657     0.8890929667
 F      3.2104237266    -6.9880966979     0.0890147226
 H     -5.5368442547    -5.5658670411    -2.1893975899
 F     -6.2531766752    -5.6530403778    -1.6235728178
 H     -4.0965641389    -4.1977467848    -3.5201006032
 F     -4.2696490031    -5.0592582677    -3.2579392129
 H      4.6802137741    -3.8892057008    -0.8282275995
 F      4.9218577295    -3.1602485602    -0.3271101621
 H     -3.2589408660    -0.6688586389     0.0602847078
 F     -3.2969044737     0.1511821191     0.4689176970
 H     -1.7657766933     0.2559465196    -2.8238401214
 F     -1.7665068437    -0.5776801661    -3.2058807159
 H      4.0220439806    -6.0231172995    -1.0973123111
 F      4.5490483872    -5.4218959933    -1.5464095127
 H      4.3802577661    -5.7139483995     2.3648605753
 F      4.3375148382    -6.6268061696     2.4407073526
 H     -5.2052514323    -2.3511791836    -0.5202809163
 F     -4.3116786209    -2.1851387152    -0.6421299768
 H     -2.4668672873    -2.0747891656    -3.4013348744
 F     -2.9153626478    -2.8611103542    -3.2549111743
 H     -1.1861787607     2.4349832903    -1.4038420670
 F     -1.5709188565     2.0782393769    -2.1559044574
 H      4.3201173851    -3.6002339470     1.2838001352
 F      3.8749281181    -4.2037408631     1.8115073634
 H     -1.8225506646     0.5172864789     1.4587456661
 F     -0.9223555680     0.5132857511     1.2840408230
 H     -0.8047419687     2.1686566312     0.9527515904
 F     -0.9646869134     2.8361758685     0.3447016890
          30
Energy: -94.11623860412524 Kcal/mole
 H     -4.7176281554     0.4191776956    -3.1613869009
 F     -4.4127542167     1.0467347951    -2.5663129825
 H      3.6978321801    -7.4549080779     5.6728359866
 F      3.2774932609    -7.3975777235     4.8598677071
 H     -5.8198933906    -1.3065232403    -4.4583193751
 F     -5.2320287927    -0.6027447239    -4.4584391210
 H     -5.8786601652    -3.4083352848    -5.2030353110
 F     -6.4713690508    -2.9006725694    -4.7215129914
 H      2.5104073309    -3.2351694931     3.7298426461
 F      2.3838754805    -2.4955885735     4.2570036786
 H     -2.5333628898     5.1647587401    -0.9827679057
 F     -1.9014391585     5.1801530736    -0.3184453843
 H     -2.0045558674    -1.9548688924    -4.7583093824
 F     -2.2125397125    -2.8114986495    -5.0109300058
 H      3.1144065164    -5.8049872887     4.1256414511
 F      2.9258842276    -5.0785330754     3.5987518775
 H      3.2494735399    -5.7176479528     6.8185002453
 F      3.8768232090    -6.3769205552     6.9311103174
 H     -3.7446781155     2.5808672383    -2.0811718269
 F     -3.6635650826     3.4942097796    -2.0704443811
 H     -3.4727300037    -3.6662233377    -5.8174901777
 F     -4.2015227917    -4.1396843800    -6.1100388293
 H     -0.5277415537    -0.3170706254    -3.2814418046
 F     -1.2986441602    -0.4631624873    -3.7560525285
 H      2.4029168711    -3.2382198566     5.9479512065
 F      2.5756914888    -3.8685745720     6.5911392539
 H     -0.7059853278     4.1390475776    -1.1074310946
 F     -0.2061342429     3.6213100405    -1.6757494345
 H      0.2274391128     1.9005347929    -2.3214999853
 F      0.5138965401     1.0664235803    -2.5726764718
          30
Energy: -98.46155066718856 Kcal/mole
 H     -4.9922298436     1.3560689210    -0.7360653688
 F     -4.3739449991     1.6919385750    -1.3241167498
 H      5.7076268779    -5.4640778334    -1.8046025322
 F      5.5198501834    -6.3342771107    -2.0245619167
 H     -6.0604223832     0.3245258381     0.9685850638
 F     -6.3811050547     0.9650997654     0.3961196344
 H     -5.0519527743    -1.7483908255     0.8479613244
 F     -5.4159713567    -1.2081526643     1.4933466363
 H      3.0506080874    -5.8746671086    -0.1275033385
 F      3.1059940423    -4.9646351013    -0.0292020576
 H     -3.2513503538     4.6761682166    -3.2123705429
 F     -2.8202977008     5.2653326859    -2.6574220422
 H     -2.4656254298    -1.4850017271    -2.7531902540
 F     -3.1577584399    -2.0291030293    -3.0096949699
 H      4.0307431021    -7.0925341703    -1.6329286760
 F      3.2222016701    -7.1548289885    -1.2048292618
 H      5.7545255988    -3.5940980915    -0.5094678205
 F      6.0705924646    -3.8763514437    -1.3226859840
 H     -3.9563879134     2.5444023360    -2.8678070810
 F     -3.6356609106     2.9315268267    -3.6347215602
 H     -3.8084361511    -2.0819709478    -1.5263504491
 F     -4.0679834212    -2.1835866567    -0.6527381424
 H     -1.1817329018     0.9144339983    -3.1565733271
 F     -1.4080639734     0.0388172778    -3.3080942988
 H      4.0810627832    -3.7518118601     0.7643656457
 F      4.7627422424    -3.1448419031     0.8526242776
 H     -0.9042839408     5.1474921091    -1.7895377965
 F     -0.5093569787     4.6770478500    -1.1086531560
 H     -0.5599027305     3.1716817148    -1.7546634348
 F     -0.5659382772     2.2707368590    -1.9253998954
          30
Energy: -100.33107196348145 Kcal/mole
 H     -3.8555576542     1.1182680512     0.2701204329
 F     -4.4284190160     0.8184059958    -0.3801115319
 H      2.0399073987    -3.3603626372     0.5611035286
 F      1.3283185565    -3.7693178138     0.1520974367
 H     -2.8175025542     1.0158009919     2.2162277630
 F     -3.1676121834     1.6913931007     1.7044782636
 H     -1.1551147491    -0.2715069022     2.4542414078
 F     -1.9680270950    -0.2080411217     2.8738061973
 H      2.0411336147    -6.9547420004     1.7156036990
 F      2.8790155923    -7.3229112040     1.7729990738
 H     -4.8505874883     1.0118683064    -3.1756999328
 F     -4.1801552305     1.3009585328    -3.7305300227
 H      1.9092986100     1.0699947414     0.0101889463
 F      2.5002946977     0.5193781685     0.4442788148
 H      0.7301514715    -5.3116185380     0.7733814346
 F      0.5203544385    -6.0408206810     1.2882973884
 H      4.3412150056    -3.4096010319     1.2254072268
 F      3.6895601881    -2.9155007602     0.8105579526
 H     -5.6822618382     0.5593698826    -1.5437661402
 F     -5.9697009744     0.3635645794    -2.3922518656
 H      1.1362409303    -0.4067411155     1.4315871751
 F      0.2990430466    -0.5320425810     1.7841325571
 H      0.3604627139     2.7353589329    -0.7380227850
 F      0.3565891595     1.9220593402    -0.3144454390
 H      4.1354197788    -6.1048097469     2.0678781577
 F      4.7125734309    -5.4469638253     2.3417785144
 H     -2.7315894150     2.4872067630    -3.9071507333
 F     -1.9954459777     2.9807705599    -3.6718283626
 H     -0.6069542606     3.4216995929    -2.6823322301
 F      0.0104569773     3.8853758276    -2.1876639446
          30
Energy: -97.27776488566627 Kcal/mole
 H     -5.2154928937     0.2657897956    -1.2613872995
 F     -5.5104769503     0.8710857213    -1.8838744470
 H      3.1064155161    -1.7471092417     1.6523993295
 F      3.3964226309    -1.6191288026     2.5128677371
 H     -2.8853074397    -0.1068588454    -0.3421351423
 F     -3.7866483249    -0.1976953838    -0.1999298968
 H     -0.7047914299    -0.6408777004    -1.1302487994
 F     -1.1620234354    -0.1272913261    -0.5235718432
 H      3.1106202710    -5.4261207206     3.1346991100
 F      3.7389238814    -5.9823371306     2.7649060889
 H     -3.6588710975     3.6586057922    -2.6527051665
 F     -3.9506875197     4.4488484803    -2.2904225841
 H      0.6612660482     1.7396049310    -3.9014147467
 F      0.4724813870     0.8525743903    -4.0371577819
 H      2.5873884234    -3.0437352009     3.4370203128
 F      2.1993957039    -3.7962878165     3.7891782466
 H      2.6760845227    -3.3895941021     0.1477337835
 F      2.5285852372    -2.5127357804     0.3719043537
 H     -4.0796114086     1.3752221985    -2.4423612031
 F     -3.4036444061     1.9455398371    -2.6846325442
 H      0.3333144849    -0.9565853516    -3.0762390335
 F      0.0891474825    -1.3553923695    -2.2874269916
 H      1.2304794104     3.9678928419    -3.0984888530
 F      1.7691163097     3.3584923264    -3.5220337767
 H      3.7253344899    -5.4320357089     1.2961282307
 F      3.6574054387    -5.1386195979     0.4299979693
 H     -2.5950359290     5.0638809671    -1.5272387749
 F     -1.9550034167     5.1956654940    -0.8839035421
 H     -0.3831524144     5.5603793871    -1.8003958966
 F      0.4109689301     5.3297116776    -2.1966946451
          30
Energy: -91.46970220111615 Kcal/mole
 H     -3.5893840378     3.1085302598    -0.5064786775
 F     -3.4373953317     3.9350977278    -0.1396344953
 H     -0.8765887753    -3.5721148121     2.7544739629
 F     -0.0569790718    -3.8087391862     3.0908336507
 H     -2.7391745870     0.9657084373    -1.4550150376
 F     -3.1753850126     1.5380765285    -0.8866804242
 H     -0.6158757449     0.6088794012    -1.7515577595
 F     -1.3728720790     0.3765257178    -2.2140048548
 H      0.1843476327    -2.4647863244    -0.6992046517
 F     -0.0968731381    -1.9526848154    -1.4059973530
 H     -4.3703120859     5.1618194191    -1.3596668912
 F     -4.8560197878     5.6777022929    -1.9417681615
 H      0.5822098091     3.5268838085    -1.3251534944
 F      1.1690285087     3.4755452532    -0.6223753171
 H      0.8088262458    -3.3619050020     1.7039565304
 F      0.8031276050    -2.9649564798     0.8773439269
 H     -2.5568452828    -2.0717323902     1.2037373590
 F     -2.4367704645    -2.2639962933     2.0922786521
 H      1.0761770454     2.0426140304     6.6866873877
 F      1.9240793974     2.1323439961     7.0241768464
 H      0.9255223917     1.7050004906    -0.1024286523
 F      0.5608300733     0.9791462219    -0.5278979149
 H     -1.2188870180     3.8570619415    -3.1423704638
 F     -0.4804963436     3.5436704221    -2.6980125366
 H     -1.7952648059    -1.9444204667    -1.0657579994
 F     -2.5178097788    -2.1896135118    -0.5571342360
 H     -4.9960696235     5.6555958343    -3.6485610447
 F     -4.9955089423     5.2027432349    -4.4459400065
 H     -3.7206788810     3.9575738789    -3.9705988828
 F     -2.9614263025     3.7745352360    -3.4900560885
          30
Energy: -103.12767009028757 Kcal/mole
 H     -3.2939143261     2.8373093140    -0.6579781985
 F     -3.6884290541     3.0768405619     0.1344054906
 H     -0.5499125787    -1.3698480806     3.0785835742
 F      0.3235569346    -1.1179900556     2.9581363054
 H     -2.1207492971     1.5539584613    -2.1032013568
 F     -2.7234776237     2.2450386332    -2.1071712995
 H     -0.3928932600     0.2733094584    -2.8247638722
 F     -1.1003882612     0.1388367995    -2.2570870916
 H     -0.3674330820     2.2170175523     2.3376237640
 F     -1.1772149729     2.1366046428     1.9149228614
 H     -3.2040252898     4.2615812860     1.4440557477
 F     -3.1692843975     4.6955540589     2.2511181385
 H      3.1819442130     2.0451509296    -3.5571861744
 F      3.3952801580     1.3579449586    -4.1256267852
 H      1.0211753932     0.4377088030     3.1503708994
 F      1.1121421272     1.3469375399     3.2272939598
 H     -2.5109409491    -1.0968107678     2.5698490100
 F     -2.1495667077    -1.3945275520     3.3583046993
 H      1.2272906973     3.4582278239    -2.2862650246
 F      2.0087625458     3.2030087364    -2.6925333685
 H      1.7481079287     0.6082984241    -4.2580560649
 F      0.9568971920     0.2633788666    -3.9483706293
 H     -0.4626920833     4.2771263407    -0.6763860506
 F     -0.2021403867     3.4655780403    -1.0146036867
 H     -2.2666545948     0.7980742738     1.6347252275
 F     -2.7400468558     0.0401811351     1.4288447829
 H     -1.6679889373     5.4213682728     2.3794633128
 F     -0.7520925014     5.4564743813     2.3513513957
 H     -0.1866797357     5.9594260911     0.4025468536
 F     -0.6483223574     5.9536069836    -0.3897543694
          30
Energy: -97.99133570396347 Kcal/mole
 H     -2.4901175770     3.1827246384     4.2228583219
 F     -2.1837793924     2.3650334091     4.5029064789
 H     -1.0420123576    -1.6056034443     3.7327778338
 F     -0.3744771025    -1.8081708458     4.3279686697
 H     -3.6629062048    -1.3354055245    -1.1734324286
 F     -3.6105312468    -1.3561201933    -0.2581637433
 H     -2.7090495878    -0.8753145721    -2.8071570579
 F     -3.4120611795    -1.4627974877    -2.7680734847
 H      3.0438280310     0.5515215667     3.9238025956
 F      3.4277557217     1.3733221510     3.7891462627
 H      2.1993377795     5.2187962671     3.4337918091
 F      1.7133832309     5.9413624707     3.7212552992
 H     -3.2216085250     2.1121975901    -0.8847222600
 F     -2.6095148363     2.3308643681    -1.5315724408
 H      1.1337588942    -1.0817049034     4.3449276283
 F      1.8019986457    -0.5215592326     4.0610588874
 H     -2.4258889789     0.8427780594     3.7942932001
 F     -2.3402129123    -0.0236790572     3.5065421329
 H     -4.0632823374     0.1708615286    -0.0307413294
 F     -4.1144062403     1.0690342990     0.1469128882
 H     -1.8413102558     1.3070044482    -2.7328759413
 F     -1.6220181319     0.5351633448    -3.1767917842
 H     -2.6560035111     5.2061003587     3.1039463590
 F     -2.9578204470     4.6337575951     3.7537303987
 H      3.3188089918     3.1453371596     2.8583845881
 F      3.1921007287     4.0462726648     2.7437144896
 H      1.3381832411     6.7976672136     2.2716612687
 F      0.7945387580     7.0323454334     1.5714714308
 H     -0.1237254151     5.6299738903     1.5498313241
 F     -0.7315440013     4.9537308966     1.6687471757
          30
Energy: -102.96378263617265 Kcal/mole
 H     -3.6530597662    -0.4175444681     3.9029073503
 F     -3.1213153942     0.1556398822     4.3820697689
 H      0.2197335234     1.6218425170     2.8605436562
 F      1.0121865939     1.2917403353     2.5381468810
 H     -4.3937755167    -2.1083053199     1.9753231664
 F     -4.3151489673    -1.6345921838     2.7565419133
 H     -4.4958422232    -1.6194030341    -0.7445646506
 F     -4.0882959874    -1.9286605801     0.0164575804
 H      4.2202322693     0.1920390151     4.2635580279
 F      4.6702940788     0.9481415659     4.5217097282
 H      2.0686184314     4.3748558382     4.2919264892
 F      1.4750417764     5.0666044240     4.1917284424
 H     -5.8029878274     1.7826552505    -1.9059246669
 F     -6.3314806706     1.1413080135    -2.2935559817
 H      2.2090934497     0.0762262370     2.9424690446
 F      2.7176776615    -0.5287034892     3.4075401421
 H     -1.8416253351     1.3529093217     4.0835942613
 F     -1.1867656490     1.9229963601     3.7885543314
 H     -3.9491914854     3.4989702287    -0.6727612011
 F     -4.4799514352     2.8841885981    -1.0984681688
 H     -5.8500944598    -0.6802705164    -2.3493317109
 F     -5.0870191973    -1.1750058602    -2.2316793270
 H     -2.9991576049     5.2438991745     0.4190454654
 F     -3.0050609266     4.7526991130    -0.3552778845
 H      3.8514847913     2.5857581602     4.7145130818
 F      3.3090457311     3.3131479365     4.8470007394
 H      0.0184739334     5.8672445013     3.8297891507
 F     -0.6375613162     6.4923671008     3.6893310183
 H     -1.7968388306     5.9213955971     2.5723472191
 F     -2.4533355768     5.8055747838     1.9426754304
          30
Energy: -99.04550388384247 Kcal/mole
 H     -4.3933386533    -0.8218902207     1.7347313207
 F     -4.3306218197    -0.2560173968     2.4535800850
 H     -2.1012698214     2.9598017584     2.1471792711
 F     -1.4736517641     3.5513856238     2.4586485382
 H     -3.3119399838    -1.5823462040    -0.4575360723
 F     -3.9923178250    -1.3839444822     0.1243674851
 H     -1.4195854338    -0.9312500856    -1.6046138629
 F     -1.7813128233    -1.6273371848    -1.1297401470
 H      0.1722017194     1.4518720609    -0.6179592090
 F      0.5109957346     1.1876459799     0.1921594201
 H      1.9427280869     0.0481770796     3.1143997152
 F      1.9338645482     0.2666001656     4.0049623425
 H     -2.3911526633     3.5825575866    -2.9235159564
 F     -2.0908092873     2.9077471556    -3.4669437241
 H      0.6774708660     5.0030188786     0.6183075925
 F     -0.0223584662     4.9943707904     0.0258102370
 H     -3.7688324867     1.4200811960     1.8280701835
 F     -3.1054325153     1.9780566256     1.5289834102
 H     -2.5061258541     4.9757805160    -0.7590132241
 F     -2.7846226393     4.7610617679    -1.6059042441
 H     -1.5563827233     1.3676476999    -2.5120036490
 F     -0.9398038536     0.8419082594    -2.0826814646
 H     -2.1101559391     5.0053252633     1.3876170405
 F     -2.8204099085     5.3873028860     0.9511294751
 H      1.7159990518     0.2089146072     0.8428094442
 F      2.1829769694    -0.2357747654     1.4947848935
 H      1.9247136926     2.2114613421     3.8942403018
 F      1.9267711328     3.0906379876     4.1548802698
 H      1.7902688607     3.7888566297     2.7050070612
 F      1.7878458246     4.3272034571     1.9626689830
          30
Energy: -106.4583914143183 Kcal/mole
 H     -4.0302143604    -0.7615558437     1.0261849974
 F     -3.8541666279    -0.3763288694     1.8395092711
 H     -2.8922725775     3.0247157276     2.9470433285
 F     -2.2064736327     3.5056308077     2.5738282522
 H     -4.2180780330    -0.9282617978    -1.4976131074
 F     -4.6618551407    -1.0416178883    -0.7031942787
 H     -4.7390071505    -0.1896547915    -3.6723163053
 F     -4.0040208449    -0.4220356635    -3.1756441187
 H      1.0515593568     0.1316399001    -0.7931935398
 F      0.4511705549    -0.1734026416    -0.1708019152
 H     -0.5528301462     4.1792073416     2.8357778070
 F      0.2391092389     4.6099981239     2.6680270627
 H     -4.4306902812     3.0098326986    -4.1583349141
 F     -5.0342009836     2.7994976482    -4.8159236904
 H      2.5485905621     1.6791171176    -1.7553122232
 F      2.4208156328     0.7840505168    -1.6022816783
 H     -4.1200564669     0.9353022285     2.9703662697
 F     -4.0971773622     1.7692014186     3.3511256259
 H     -2.9281846718     3.1492801897    -2.4524413768
 F     -3.1092865470     3.6016059639    -3.2292891771
 H     -5.8754884609     1.3609009148    -4.6299765238
 F     -6.1742441203     0.5682254809    -4.2788359359
 H     -2.0730937689     2.2331601948    -0.1636459193
 F     -2.7807198300     2.2688800318    -0.7457785939
 H     -0.2936121577     1.0281026651     0.5226797654
 F     -0.5967877015     1.8368745317     0.8306759624
 H      1.1559923632     3.9552922662     1.4403055597
 F      1.4252575955     3.8339584127     0.5721677073
 H      1.8052405841     3.4050910738    -1.1747902357
 F      2.3180808351     3.2590097433    -1.9208090839
          30
Energy: -106.4024406305934 Kcal/mole
 H     -5.8279670044     1.3199030909     0.9439383945
 F     -5.3219008734     1.0621673841     1.6639094887
 H     -3.8895803380     3.6893257167     3.5029653482
 F     -3.1928965314     4.2727833309     3.3800918927
 H     -6.8852756667     1.3983918651    -1.1012415081
 F     -6.8446719930     1.8032717405    -0.2794674344
 H     -7.0341297574     0.2075192008    -3.4428535948
 F     -6.9452357378     0.4656543900    -2.5674376494
 H      1.5908860810     2.6385317260     0.1378644229
 F      0.9576917250     1.9888555080     0.0041680532
 H     -2.6564249768     5.9266312858     3.1933405398
 F     -2.2998501543     6.7597403373     3.0530811217
 H     -4.2734526384     0.2844862125    -3.9181308739
 F     -4.4434920288    -0.4424368087    -4.4506330119
 H      1.9728437879     4.5947522671    -0.2198334108
 F      2.5750614576     3.9247355464    -0.0486596038
 H     -5.4359969390     2.1549779551     2.9588247642
 F     -5.4686364916     2.7483469328     3.6572064048
 H     -3.1698363718     2.1442003253    -2.7168367161
 F     -3.9440569483     1.7429833995    -3.0005557274
 H     -6.2057952337    -0.6240286569    -4.8498076432
 F     -6.9552683127    -0.1257355792    -5.0255435602
 H     -2.1274756411     2.7669921577    -0.4785852088
 F     -2.3391218199     3.0651821950    -1.3195237302
 H     -0.6320899968     1.7679557122     0.8149580555
 F     -1.5410517560     1.8257300981     0.9214458044
 H     -0.7676557665     7.0414938728     2.3162215871
 F     -0.0219204087     7.0902041902     1.7848130050
 H      0.4766133269     6.0628418804     0.3829771365
 F      0.8559387116     5.6809811174    -0.3594402732
          30
Energy: -102.34743784858674 Kcal/mole
 H     -7.2988098437     1.1557322702    -0.8246270009
 F     -7.3499550487     1.9615497745    -0.3899646977
 H     -5.1302892096     3.2294923741     2.1534902120
 F     -4.6855311662     4.0092640938     2.3406675292
 H     -6.7045117115    -0.7090684736    -1.9830390988
 F     -7.4605169022    -0.2999488472    -1.6637175009
 H     -4.2763457610    -1.5517233503    -2.9732344431
 F     -5.0550731623    -1.1042370301    -2.7882246387
 H      2.3827424661     2.4595645714     1.0310577414
 F      2.3578899948     1.7837419318     0.4117556225
 H     -3.7711945841     3.7783259144     3.7452175032
 F     -3.1656708355     4.0003551304     4.3970863682
 H     -2.7575122224     0.5796462469    -4.8373466007
 F     -2.6982328978    -0.0394056955    -5.5112528659
 H      2.1154849458     4.5015401726     2.3967794606
 F      2.3941849152     3.6412994038     2.2444602346
 H     -6.3580274396     1.9004264877     0.8541247179
 F     -5.7139428874     1.8092949116     1.5004521314
 H     -2.2999410399     1.5712944540    -2.8918780244
 F     -2.9854842372     1.5936194602    -3.5005003364
 H     -2.6914770021    -1.6782248285    -4.3537692752
 F     -2.9808875828    -2.2669668052    -3.7130560784
 H     -0.1645566878     1.6328731858    -1.7879714140
 F     -0.8960283337     1.1560891533    -2.0681770842
 H      1.4024059703     2.7195277992    -0.5083070851
 F      0.6854884778     3.1024828407    -0.9328818667
 H     -1.9066104913     4.9623435664     4.0627638628
 F     -1.2880678368     5.6388076447     4.0364896290
 H      0.1791712016     5.4127258402     2.9490391009
 F      1.0514689239     5.6542836193     2.8019489142
          30
Energy: -105.64849295435323 Kcal/mole
 H     -3.7798699523     1.4740205757     1.5458916564
 F     -3.3112875257     1.3888845599     2.3295187159
 H     -2.4956166945     4.4613896794     4.7046664417
 F     -2.4218313964     4.7526551830     5.5710434591
 H     -5.5184064668     1.2031393329    -0.4261885544
 F     -4.6290414162     1.2576142859    -0.2095060996
 H     -6.8598776338     0.7621682324    -1.9781385771
 F     -6.9753414250     0.7390931932    -1.0687296177
 H      0.5675101862     3.1891177668     2.4343445247
 F      0.5090361912     2.2989860562     2.6467952950
 H     -0.8475005577     4.2665005882     6.2778700707
 F     -0.2789923688     3.7493367361     6.7780990075
 H     -3.0946718645     1.7417374627    -4.1978271958
 F     -3.8864296162     2.1376620314    -4.4371019305
 H      1.7252790534     5.0958484776     3.1351235032
 F      1.1736294235     4.8130877316     2.4593883137
 H     -2.8194519844     2.8690658960     2.9096725569
 F     -2.4457833931     3.5994587180     3.3192908054
 H     -1.6963011124     0.2543557223    -2.9799620111
 F     -1.7904717912     0.4352769711    -3.8739913087
 H     -5.6325754100     1.1306086177    -4.1984030112
 F     -6.2200068907     0.5834560870    -3.7551904622
 H     -0.6632441866     0.5157279398    -0.8818182785
 F     -1.0887981044    -0.0934147593    -1.4191617767
 H      0.1646966658     1.7131941932     1.0569087990
 F     -0.0045599300     1.6139483424     0.1611457355
 H      1.3045182660     4.1295365092     6.6827669196
 F      2.1662269688     4.4431392080     6.6820895017
 H      2.6102758955     5.3083385722     5.3950554714
 F      2.5569468813     5.6717320322     4.5548232359
          30
Energy: -102.26734364908347 Kcal/mole
 H     -5.1353890673     4.5919508936     0.5093185623
 F     -4.8307579071     4.2084353740     1.2845634929
 H     -2.3164775787     1.5355616666     2.6939367846
 F     -2.1549963169     1.1401262845     3.5053821991
 H     -5.4037418211     5.0183685298    -1.5941024805
 F     -5.5872832618     5.3840808585    -0.7734588111
 H     -4.5997929734     3.4435097204    -3.0303215776
 F     -5.2092347235     4.0816626974    -2.7808610974
 H      0.9546595760     5.4772122058     3.1809738177
 F      1.2702309751     5.3430543026     2.3305002149
 H     -1.6814641895     1.9315768876     5.0271088844
 F     -1.5863810081     2.0985071931     5.9237595754
 H     -1.5401871266     1.4232718394    -2.0045572194
 F     -2.1592500799     0.7939811639    -2.2528379186
 H      0.0646593621     6.9152370795     5.2593319109
 F      0.5465800193     6.4403973414     4.6403256886
 H     -3.6149876697     2.8524490977     1.4683228792
 F     -3.0185499992     2.1789038994     1.2908743766