          30
Energy: -120.71422411532046 Kcal/mole
 H      1.9758123285    -0.1340880361     3.0252825195
 F      1.7020507988     0.6013421266     3.4997149179
 H      0.7175223482     3.8049873755     3.3865019994
 F      1.1735872797     4.4689663401     3.8247093850
 H      3.6221840202    -1.2879007687     2.1466168425
 F      2.7099882207    -1.3008513601     2.0537723193
 H      5.2874844696    -0.0025624547     2.6326139166
 F      5.2295038247    -0.8685249359     2.3365797531
 H      6.1332898545     1.7408857103     5.9711776949
 F      5.8694961177     2.5747330532     6.2468595281
 H      2.5221478880     3.8377477192     4.6015629721
 F      3.2101758255     3.3657268405     4.9819612468
 H      3.5178484014     3.7045066845     1.7263928697
 F      3.2695572157     2.8305367557     1.8505582864
 H      5.4318630055    -0.2420713843     5.4613561652
 F      6.2581899476     0.1511827303     5.5198710012
 H      0.6791971856     1.7284015776     2.8467163872
 F      0.1606553792     2.4445361700     2.6034991168
 H      4.1343514846     5.6981354437     2.4395977094
 F      4.0790857260     5.2374855254     1.6486259345
 H      4.3847890758     2.0229033350     2.7444991964
 F      5.0565365584     1.5373964980     3.1368350613
 H      4.9077646833     5.7444737395     4.4719113820
 F      4.2168764239     6.1690392682     4.0437682693
 H      6.0812079196     4.0257327262     5.4663472890
 F      6.1833350007     4.8094965350     5.0014028286
 H      2.8442099376     2.0960754233     6.0156130012
 F      2.6430475956     1.3005030193     6.4248650777
 H      3.3358890276    -0.0997185151     5.7645211342
 F      3.8775823854    -0.7114104290     5.3482396085
          30
Energy: -120.7630841927512 Kcal/mole
 H      2.1096459715    -0.1614331196     3.3846988226
 F      2.0025134459     0.7362493347     3.5382495738
 H      0.7843050890     3.8616797469     3.2867451702
 F      1.1891150665     4.5536617327     3.7319179606
 H      3.5342090497    -1.4432698050     2.9019166625
 F      2.6373552951    -1.6285917234     2.9488008753
 H      5.1356542791     0.0347229832     3.0520839621
 F      5.0724442441    -0.8421442682     2.7913210147
 H      6.1724497433     1.9214151409     6.3069768229
 F      5.9630825448     2.8136417461     6.3383784332
 H      2.3911760765     4.0286258674     4.7555917281
 F      3.0956747362     3.6696237983     5.2200141145
 H      3.4453986583     3.7800830322     1.8173805810
 F      3.3572413188     2.9155427481     2.1101046502
 H      5.5056643678    -0.1246515651     5.9747208918
 F      6.3191953189     0.2746052051     6.1149008583
 H      0.7988271925     1.7883367467     2.9802455112
 F      0.2069562454     2.4521043065     2.7566601617
 H      3.8165612405     5.8055382902     2.4187463722
 F      3.6273836110     5.3946771633     1.6210660109
 H      4.4856579358     2.1390052801     3.1150034094
 F      4.9930342811     1.5709899062     3.6257056507
 H      4.8139929977     5.5729019220     4.2530205416
 F      4.1758151059     6.1793348308     3.9963941485
 H      6.0107911191     3.8066551094     4.9769601018
 F      6.0656714938     4.3990453919     4.2791414307
 H      2.8084747687     2.3489700386     6.1526291452
 F      2.6439151836     1.5521375067     6.5755559226
 H      3.4062890057     0.1938810775     5.9875840926
 F      3.9169435543    -0.5043399269     5.6832678740
          30
Energy: -120.46565315771682 Kcal/mole
 H      1.9994459069    -0.2216970539     3.4277740560
 F      1.7164609564     0.5914295261     3.7434220922
 H      0.5753072546     3.6483149158     3.5638266949
 F      0.9406514024     4.3026995793     4.0922142096
 H      3.5682828120    -1.4510748382     2.7197717820
 F      2.6545732038    -1.5280497888     2.7098415848
 H      5.1078767715     0.0207637271     3.0761710383
 F      5.1215520236    -0.8201245426     2.7106455190
 H      6.0119671830     1.8704029793     6.6286859835
 F      5.8017766391     2.7593118961     6.7096172684
 H      2.3162611519     3.9281381068     4.9107685746
 F      3.0676304951     3.6134887117     5.3318729183
 H      3.1975946254     3.8739937116     2.0117351492
 F      3.1767301519     3.0131729658     2.3270783230
 H      5.4383146773    -0.1218579919     6.0347548144
 F      6.2362468507     0.2808708438     6.2397004938
 H      0.6922797051     1.6409970991     2.9051749019
 F      0.1628423082     2.3389735017     2.6342247513
 H      3.8774832112     5.8315946864     2.3629488109
 F      3.3224016859     5.4740167221     1.7266222439
 H      4.3658229737     2.1722389671     3.2362311890
 F      4.9516104726     1.5751446872     3.6120242531
 H      5.3843448312     5.5721605174     4.0226172486
 F      4.9281849842     6.2348840707     3.5826119237
 H      6.1168736222     3.7277223594     5.3928879156
 F      6.2369962415     4.2729729397     4.6654531343
 H      2.8650194640     2.2464864369     6.2626614732
 F      2.7054241011     1.4474919264     6.6834061611
 H      3.3241928412     0.1340169698     5.9317764924
 F      3.8458323062    -0.5408308242     5.5950841648
          30
Energy: -120.7994296049129 Kcal/mole
 H      1.8431194042    -0.4104863421     3.5443136193
 F      1.5643751400     0.3640370541     3.9484226937
 H      0.5731570185     3.7351816525     3.8185737745
 F      1.0129629534     4.4515453310     4.1850199774
 H      3.4411236595    -1.5409635728     2.7736073897
 F      2.5330357963    -1.6684982378     2.7741921814
 H      5.1255618263    -0.0896483086     3.1102364198
 F      4.9891465441    -0.9134778762     2.7313106828
 H      6.0497983660     1.7165734905     6.4245810765
 F      5.7382162543     2.5778183113     6.4700007457
 H      2.4680583934     4.0978390672     4.8901777092
 F      3.2790397841     3.8040049245     5.2014005883
 H      3.3182502282     3.5858959774     2.1569980194
 F      3.0577895062     2.7687535795     2.4815400256
 H      5.4731848516    -0.2801163199     6.0895599424
 F      6.2654352718     0.0940305718     6.3601932279
 H      0.5008605577     1.6381938265     3.3841682128
 F     -0.0699638589     2.3499109589     3.2919336810
 H      4.1468000530     5.6344589659     2.3791339561
 F      3.7924224389     5.1038577786     1.7205233833
 H      4.2764979943     1.9750331079     3.2627762447
 F      4.9400739661     1.5136137089     3.6959598870
 H      5.3769969619     5.6166451331     4.2028923470
 F      4.8351928420     6.2261219874     3.7835175030
 H      6.1424960105     3.7475789494     5.3427344201
 F      6.4069219652     4.4024072648     4.7577833181
 H      3.0351666039     2.3700566355     6.0946647031
 F      2.7167894217     1.5705833225     6.4114728339
 H      3.3607380112     0.0825950373     5.9220964304
 F      3.8861146528    -0.6307163106     5.6853364135
          30
Energy: -120.54793059917289 Kcal/mole
 H      1.8220365960    -0.3512782313     3.6528829904
 F      1.6936446294     0.5008338240     3.9664265252
 H      0.9274420708     3.9048602043     3.6025822464
 F      1.3977789912     4.6170397394     3.9379514327
 H      3.2931543918    -1.7286401024     3.0583504079
 F      2.3775242210    -1.7662188885     3.0252109294
 H      4.8619410149    -0.2401359658     3.3444700021
 F      4.8304347801    -1.0959893974     3.0167334297
 H      6.0987096188     1.7574935819     6.6313957158
 F      5.7918223783     2.6216004577     6.6260544849
 H      2.5586254081     4.0165934338     4.9198542368
 F      3.2048039167     3.5928863528     5.4136301421
 H      3.2951022453     3.5281542582     1.9701837175
 F      3.0781971560     2.7058700973     2.3132433929
 H      5.5240179500    -0.3033792113     6.3353567202
 F      6.3221532773     0.1410081690     6.4152870371
 H      0.7028293352     1.7633440275     3.4307827247
 F      0.1866489489     2.4981451647     3.2450030228
 H      4.0290024722     5.5325682433     2.3527104061
 F      3.7782676238     5.0640925354     1.6053473437
 H      4.1592503605     1.8425529891     3.2325435198
 F      4.7208167504     1.3371830856     3.7522871589
 H      5.0667975567     5.5449664677     4.2534137949
 F      4.4167308373     6.0572444913     3.8586056304
 H      6.0575641943     3.8119150918     5.4004447257
 F      6.2152789050     4.3897443051     4.7060900106
 H      2.9848177898     2.2504839853     6.4537624765
 F      2.8291389126     1.4377848235     6.8489499760
 H      3.4786421193     0.0327474241     6.3149050861
 F      3.9493171926    -0.6890252071     6.0012201418
          30
Energy: -120.62955986021633 Kcal/mole
 H      1.8933027691    -0.3458929988     3.6333187091
 F      1.5265193709     0.3124469934     4.1557623840
 H      0.8078907741     3.8735681327     4.0265420129
 F      1.3243584040     4.6022512791     4.2343184777
 H      3.6088257363    -1.4247290469     2.8375981341
 F      2.6951531353    -1.4723694523     2.7757776687
 H      5.2448649662    -0.0346037746     3.2863936158
 F      5.2029872784    -0.9276414909     3.0823865167
 H      6.1278496231     1.8258391888     6.6701789740
 F      5.8516295133     2.6808653753     6.8532682186
 H      2.6139749129     4.1664437277     5.1737485134
 F      3.2930608963     3.7748301993     5.6495321529
 H      3.1449312377     3.5591285591     2.1670538478
 F      3.0088484256     2.7130804131     2.4935090557
 H      5.5460683638    -0.1394844144     6.2623485446
 F      6.3754188296     0.2515422808     6.2495060910
 H      0.5384495500     1.6294619703     3.8372157316
 F      0.0720067377     2.4094303222     3.7148659343
 H      3.8584384637     5.5229935025     2.5371741701
 F      3.6334142579     5.0584413073     1.7792530893
 H      4.3384140651     2.0123939699     3.2548180332
 F      5.0468552735     1.6098414011     3.6754740490
 H      4.9048678020     5.5758758153     4.4605994285
 F      4.2614358711     6.0720537417     4.0355208291
 H      6.0042380046     3.9352282528     5.7098643370
 F      6.1157517219     4.5715915684     5.0590990786
 H      2.8256478269     2.4377495496     6.5159167583
 F      2.5260194018     1.6054237146     6.7574649132
 H      3.3302681638     0.2547338620     6.2425155069
 F      3.8910060051    -0.4214288430     5.9793310283
          30
Energy: -120.58310817703578 Kcal/mole
 H      2.0698059922    -0.2729249571     3.9308836543
 F      1.8441950043     0.5727879195     4.2043035010
 H      1.1095818621     3.7707878108     3.4185215508
 F      1.5580382438     4.4883458263     3.7719142050
 H      3.5727234463    -1.5812501254     3.3040295922
 F      2.6656889017    -1.6655091056     3.4092805265
 H      5.3083560909    -0.2190429887     3.4139129585
 F      5.1768894221    -1.0994066791     3.1935376250
 H      6.1525160324     1.7323425130     6.7164963214
 F      5.8734528989     2.6058469041     6.7148092303
 H      2.6885376318     4.0212583559     4.9731558981
 F      3.2868111115     3.5752715820     5.5061227273
 H      3.6023937735     3.3878605350     2.1387133168
 F      3.3962545524     2.5643648814     2.4854848987
 H      5.3508124978    -0.1926381955     6.5772885206
 F      6.2185233073     0.0755305673     6.7039868463
 H      0.8028143124     1.6489848512     3.3116339014
 F      0.3665674863     2.3527992732     2.9176504421
 H      4.2094847524     5.3604548203     2.6326471471
 F      4.1435140817     4.9058381748     1.8390095874
 H      4.5766817911     1.8917409071     3.4208614256
 F      5.2058574048     1.4197169484     3.8922640449
 H      5.0159448105     5.4632452366     4.5589069561
 F      4.3670988996     5.9684210731     4.1530925180
 H      6.1245822959     3.7136683080     5.5267945328
 F      6.2357828375     4.3989681124     4.9277222353
 H      2.8111068399     2.3126734656     6.4843392377
 F      2.4799084280     1.5950506186     6.9493274758
 H      3.2657780264     0.2358022148     6.4625501750
 F      3.7875276537    -0.4798995988     6.2249849408
          30
Energy: -120.62750041895859 Kcal/mole
 H      1.9876651395    -0.2024848378     4.0436664751
 F      1.7068492050     0.6289141768     4.3097624905
 H      1.0693990101     3.8138931147     3.3277668932
 F      1.4571197674     4.5326552997     3.7448310799
 H      3.5162359992    -1.6114073899     3.4728593202
 F      2.6034470732    -1.6020739722     3.3855766542
 H      5.2438216672    -0.3359946485     3.7086456588
 F      5.1291852601    -1.2418855394     3.6243296585
 H      6.0098314859     1.7935648722     6.7478659567
 F      5.7787041089     2.6809153670     6.7390209073
 H      2.5451648753     3.9985904637     4.9090064733
 F      3.1588880621     3.5788062568     5.4456758963
 H      3.5974603387     3.3668287767     2.1069955150
 F      3.4114694288     2.5465578403     2.4723063037
 H      5.3747296748    -0.2363219973     6.5908432717
 F      6.1987144782     0.1367277184     6.7417470606
 H      0.8228642674     1.6548999976     3.2570546442
 F      0.4724930989     2.3542354355     2.7784535685
 H      4.2802074516     5.3498683332     2.5034486278
 F      4.0969706236     4.8775018162     1.7391298863
 H      4.4956724324     1.7527742753     3.4531806581
 F      5.0674682756     1.2813728375     3.9932910154
 H      5.1457099645     5.5707710044     4.4232435662
 F      4.5026000063     6.0643060669     3.9946158444
 H      5.9944358736     3.7224416493     5.4154992247
 F      6.1984736051     4.3527915283     4.7815302712
 H      2.7892870983     2.3939183540     6.6337328817
 F      2.5269334887     1.6470857143     7.0966590008
 H      3.2028030253     0.2283850146     6.5184738831
 F      3.7257312944    -0.4738757195     6.2459580363
          30
Energy: -120.65202382966962 Kcal/mole
 H      1.8888970152    -0.2612786222     3.9795503613
 F      1.7277852736     0.6127262136     4.2054874181
 H      0.7541845592     3.7190400116     3.5479849579
 F      1.2363644649     4.3974619690     3.9328682988
 H      3.4079423257    -1.6106025864     3.6437094060
 F      2.5022994933    -1.6860527826     3.5212050058
 H      5.1216153317    -0.2587159452     3.6744254624
 F      5.0138603298    -1.1693590461     3.6717792567
 H      6.0506872110     1.6314625420     6.5498287486
 F      5.7643412388     2.4987104565     6.6321454484
 H      2.4697007906     3.8059623942     4.8651660949
 F      3.1425762724     3.4180399719     5.3526533053
 H      3.2947209170     3.4521062529     2.0608245833
 F      3.2326055472     2.6251937585     2.4522915773
 H      5.3958327721    -0.3638634392     6.4199462733
 F      6.2418327461    -0.0156657112     6.3572455060
 H      0.6133329458     1.5527866412     3.3840872615
 F      0.0897701892     2.2271325239     3.0493804189
 H      3.8385537230     5.5205335763     2.4194945615
 F      3.6507974469     5.0371124392     1.6632270262
 H      4.4501734885     1.8350956231     3.2558648095
 F      5.1016332030     1.3877632273     3.7210346366
 H      4.9385225722     5.4070995640     4.3327311832
 F      4.2935727677     5.9523140972     3.9754219859
 H      5.9669458062     3.6584579685     5.4240760436
 F      6.1422698493     4.3102906316     4.8033791295
 H      2.7806698406     2.2141401560     6.4570302589
 F      2.4271098785     1.5670995703     7.0022117274
 H      3.1973533995     0.1254824020     6.6550931349
 F      3.7204563769    -0.5680314483     6.3613401528
          30
Energy: -120.33431908933969 Kcal/mole
 H      1.9741831797    -0.2704611890     3.7064545516
 F      1.7606845829     0.5611780222     4.0284538865
 H      0.8094564810     3.7139417356     3.6326901970
 F      1.2546703305     4.3862401184     4.0693691554
 H      3.4784605075    -1.4927224563     3.0430968445
 F      2.5716676283    -1.6154031549     2.9833882145
 H      5.1318193345     0.0040428582     3.3392807794
 F      5.0337414376    -0.8312697425     2.9738733556
 H      6.2340794385     1.7011162597     6.4025521895
 F      5.9015361942     2.5429663364     6.5494958485
 H      2.4704671892     3.8793613264     5.0532231618
 F      3.1855543865     3.5602484486     5.5304089448
 H      3.3040798463     3.5164654153     2.1121724841
 F      3.2072833987     2.6352218581     2.3465423639
 H      5.5321859078    -0.2629553917     6.1018514077
 F      6.3963857183     0.0348855652     6.1749161187
 H      0.6278877238     1.6634916031     3.3355972706
 F      0.1294678545     2.3883685599     3.0767149972
 H      3.8679787150     5.5242125223     2.5666944319
 F      3.6128123088     5.1136738694     1.7874402247
 H      4.3432976604     1.9449651112     3.3514855968
 F      4.9429612394     1.5321662333     3.9090604155
 H      5.0051898979     5.4623594138     4.5030044605
 F      4.3084433072     5.9697763916     4.1900169224
 H      6.1726633356     3.7098032297     5.3878838752
 F      6.2691263081     4.3635262686     4.7520929635
 H      2.9763031988     2.2419617513     6.5182216395
 F      2.7950864245     1.4632366473     6.9672613852
 H      3.4208580899     0.1519490962     6.2534150878
 F      3.8942089543    -0.5328295068     5.8688293053
          30
Energy: -120.07986510608538 Kcal/mole
 H      1.9442301653    -0.1933184979     3.4578155710
 F      1.7067211098     0.5241691182     3.9771324003
 H      0.7024513885     3.8131777819     3.8132546878
 F      1.0915188086     4.4910937223     4.2927810378
 H      3.3991312784    -1.3085264835     2.5053523543
 F      2.4868043750    -1.3539991220     2.4248485626
 H      5.0852546533    -0.0794327414     3.2822751822
 F      5.0273617169    -0.9248937823     2.9319424315
 H      6.1908671172     1.6323941556     6.2904920776
 F      5.9890483088     2.5209402731     6.3936616740
 H      2.5285277881     4.1124944343     5.1116763452
 F      3.2570694942     3.7575681280     5.5407955589
 H      3.4893337289     3.5411330703     2.0899477397
 F      3.3041213506     2.7032088507     2.4131634216
 H      5.4289342806    -0.2650540981     6.1539375695
 F      6.3103260605    -0.0149966764     6.1927810526
 H      0.6661461385     1.7351887600     3.3917026512
 F      0.1255569102     2.4447605220     3.1791933555
 H      4.0491073555     5.5750004843     2.4799908865
 F      3.9346610090     5.0739425147     1.7205621901
 H      4.3993775841     1.9326980667     3.3562655778
 F      5.0304999933     1.4645992257     3.8289779425
 H      5.0581128567     5.5497319746     4.3379107698
 F      4.3826901225     6.0791521362     4.0147893955
 H      6.0845500491     3.7098568366     5.2372421341
 F      6.1869949735     4.3975607865     4.6393647932
 H      2.8860124140     2.4501298407     6.5543017328
 F      2.7292646678     1.6252568713     6.9229529616
 H      3.3628738945     0.2485612766     6.3470162198
 F      3.8209355186    -0.4737049595     6.0162594622
          30
Energy: -120.97244356552221 Kcal/mole
 H      2.1457152517    -0.1012085468     3.5828180602
 F      1.9168706371     0.7314108488     3.8914668643
 H      0.9847931177     3.9521139884     3.3834918780
 F      1.4799106276     4.5847915005     3.8256081715
 H      3.6445352492    -1.3193606557     2.7692274466
 F      2.7325870743    -1.3997597322     2.8219106019
 H      5.3302294640     0.0820561443     3.0817665462
 F      5.2103168262    -0.7571689783     2.7321794285
 H      6.0256405198     1.7667901424     6.4972446739
 F      5.8538056657     2.6654907036     6.5580647719
 H      2.6392073212     4.0186606337     4.8027377527
 F      3.3092812941     3.5769315847     5.2463201218
 H      3.6407536371     3.7170321881     1.9704899454
 F      3.4938917017     2.8578714451     2.2553818365
 H      5.3102321098    -0.2471874958     6.1476188450
 F      6.1373191085     0.1273868973     6.2761105590
 H      0.9450912835     1.8423468508     3.0432730736
 F      0.4360077759     2.5503874871     2.7597215974
 H      4.1536289335     5.7105052521     2.4528729847
 F      3.9860235653     5.2777946420     1.6619501261
 H      4.6068001440     2.0779286818     3.2506472680
 F      5.1933565380     1.5530636244     3.7211334721
 H      5.1181911332     5.6391169476     4.3419505657
 F      4.5114205421     6.2176278836     3.9704084461
 H      6.0585713065     3.7830271592     5.2846605608
 F      6.2184977516     4.4310187914     4.6558367567
 H      2.9584519755     2.3585697933     6.3009704874
 F      2.7468212789     1.5829776409     6.7420580768
 H      3.2408836927     0.1153368080     6.1322608003
 F      3.7556318074    -0.5949538568     5.8650332756
          30
Energy: -120.67492432612238 Kcal/mole
 H      1.9701733754    -0.0295203656     3.4898346549
 F      1.7680516633     0.8291381503     3.7403169228
 H      0.9462487533     4.0674499827     3.3681990917
 F      1.5375103881     4.6708897470     3.7247928804
 H      3.5061653010    -1.4042888801     2.9014966774
 F      2.5896266927    -1.4304434661     2.8887720112
 H      5.1652834823    -0.0962529001     3.1971509428
 F      5.1130930197    -0.9640142777     2.9053370514
 H      5.9680135680     1.6110645299     6.4959981530
 F      5.8124904647     2.4837340337     6.7308374628
 H      2.5040217840     4.0824823012     4.9376869037
 F      3.0475736363     3.5776397218     5.4767363947
 H      3.4474721953     3.7025393234     1.8534027568
 F      3.3203785199     2.8346721571     2.1208775769
 H      5.2380349786    -0.3443511316     6.0715018925
 F      6.0833958474    -0.0063730377     6.1811595850
 H      0.7069693764     1.9903207238     3.1034333901
 F      0.1428305813     2.6882732740     2.9150225157
 H      3.9299160720     5.6462388086     2.3638555146
 F      3.8191577330     5.2230993294     1.5578936226
 H      4.3529852090     1.9889660290     3.1642970402
 F      4.9664583766     1.5209343644     3.6597625119
 H      4.8626423422     5.4336166208     4.4626412962
 F      4.2928009446     5.9885643495     4.0063488462
 H      5.9840900679     3.7069971508     5.6047598283
 F      6.0367309099     4.3597803561     4.9628937764
 H      2.5989720470     2.2087848900     6.3726617293
 F      2.3917297172     1.4102514680     6.7730165601
 H      3.1317518823     0.0562448883     6.1686904506
 F      3.6242820664    -0.6015569803     5.7617509964
          30
Energy: -121.00777810474727 Kcal/mole
 H      1.8103194080    -0.0519313795     3.5187463847
 F      1.5785460031     0.7330270918     3.9322802855
 H      1.0819109301     4.1160547571     3.4430768321
 F      1.5310256646     4.7871364759     3.8776274988
 H      3.3366924198    -1.3541859393     2.7340520527
 F      2.4236350915    -1.3203632829     2.6561332283
 H      5.1469254298    -0.0693895533     3.1261654444
 F      4.9996701103    -0.9163710292     2.8070616206
 H      5.9821884465     1.6014749024     6.5794459020
 F      5.8170453295     2.4993272864     6.6659204496
 H      2.5942791256     4.0899304729     4.9679237424
 F      3.1817883924     3.6184870475     5.4908606010
 H      3.6486256831     3.7466130633     2.0178788653
 F      3.5232108530     2.9013759843     2.3506466533
 H      5.1849060978    -0.3915601885     6.1634107780
 F      5.9912907039    -0.0462048634     6.4305485074
 H      0.7468024490     1.9397623137     3.1574649681
 F      0.3870970170     2.7350726474     2.8764267584
 H      4.0969367188     5.7715305780     2.5460972306
 F      3.9342076194     5.3497973844     1.7482567994
 H      4.5965327789     2.0864531983     3.3567481622
 F      5.1148326551     1.4874660715     3.8187748499
 H      5.0330114018     5.4461558773     4.4662274987
 F      4.4531541535     6.0635834174     4.1148903326
 H      5.9925545840     3.6311339126     5.4816636890
 F      6.1048280450     4.2379682730     4.8034043514
 H      2.8593280800     2.2329933984     6.3656715470
 F      2.6570051442     1.4338492102     6.7673218876
 H      3.1013442469     0.0237127037     5.9894633709
 F      3.5942706638    -0.6430559027     5.5978868482
          30
Energy: -120.66617158121701 Kcal/mole
 H      2.0099628545     0.0257569941     3.7289335013
 F      1.8755791784     0.8989170194     3.9747415523
 H      0.9045094073     4.0832787579     3.4735143727
 F      1.3932729921     4.6894278766     3.9578514496
 H      3.4503826829    -1.3777103130     3.0914209815
 F      2.5335211066    -1.3935649379     3.0898459392
 H      5.1477279382    -0.0782661202     3.3499699861
 F      5.0536824811    -0.9692317303     3.1544585194
 H      6.1519346697     1.5786325290     6.4743679426
 F      5.9347065576     2.4595004783     6.6076818698
 H      2.4993744727     4.0135300802     4.9701623760
 F      3.0826853308     3.4837477653     5.4391699897
 H      3.5224833139     3.8374550347     2.0188297432
 F      3.3513177984     2.9799707618     2.2950761694
 H      5.3541806427    -0.3754157890     6.1673017723
 F      6.2232338942    -0.0966270921     6.2562529303
 H      0.6943154413     1.9677116528     3.2645188016
 F      0.1737408333     2.6718183118     2.9922599352
 H      3.9118425293     5.7656244172     2.7163963284
 F      3.7970138820     5.4538554268     1.8617013662
 H      4.4162601660     2.0909767423     3.2230158298
 F      4.9635118290     1.5225282114     3.6902105271
 H      4.8754217628     5.3987438084     4.5803087788
 F      4.2419376644     6.0191556482     4.3464796829
 H      5.9796573559     3.6123007724     5.3943106217
 F      6.0698165389     4.2403112395     4.7322206166
 H      2.5959718397     2.1911433894     6.4876522192
 F      2.4423540221     1.4247928634     6.9672326999
 H      3.1701446382     0.1101234022     6.3093998800
 F      3.6829727415    -0.5293923846     5.8984060905
          30
Energy: -120.76378823611424 Kcal/mole
 H      1.9308147733     0.0401443667     3.4062265984
 F      1.6929905762     0.8445824330     3.7766426466
 H      0.9042347388     4.1596263454     3.4980296279
 F      1.3170869769     4.7681498016     4.0458810974
 H      3.4297717531    -1.3404246248     2.7961394033
 F      2.5140675230    -1.3640038200     2.7534921943
 H      5.1121150563    -0.0274304121     3.2131002165
 F      5.0258936031    -0.8764818726     2.8775909344
 H      5.8903849092     1.7769790128     6.5580536082
 F      5.6976890956     2.6615563670     6.7039310497
 H      2.4679327294     4.2271626464     5.1589632276
 F      3.0618827325     3.7276471945     5.6474268466
 H      3.5843648166     4.0131950613     2.1339918516
 F      3.4097701402     3.1637053837     2.4319398111
 H      5.1651742881    -0.1450337505     5.9921333078
 F      6.0056819138     0.1686858346     6.1819120026
 H      0.6926862964     2.0214100841     3.0934033551
 F      0.2307776028     2.7667888294     2.8251872393
 H      4.0140673618     5.9015508462     2.7248508077
 F      3.9950897232     5.5783820906     1.8668934634
 H      4.4345237800     2.1919987907     3.3064999530
 F      4.9519946615     1.6078597893     3.7880542218
 H      4.7577589270     5.5637811522     4.5923356931
 F      4.1191028827     6.1769391102     4.3534952115
 H      5.8853608658     3.7869404930     5.4443961347
 F      5.9296713335     4.4207555380     4.7831820459
 H      2.6496721569     2.3348803283     6.4108814769
 F      2.3899099457     1.5211769982     6.7444972504
 H      3.0514871281     0.1685052421     5.9619424668
 F      3.6118328942    -0.4449788660     5.5739490755
          30
Energy: -120.90311475607957 Kcal/mole
 H      1.9027804485    -0.0327260065     3.4426708248
 F      1.6421728106     0.7491100312     3.8447965133
 H      0.7838490152     4.2438304781     3.4419541776
 F      1.1859547977     4.9267020494     3.9033502729
 H      3.4227037226    -1.3408928615     2.6263337761
 F      2.5072993105    -1.3879058094     2.6530460371
 H      5.0905942256     0.0599074334     3.0503274522
 F      5.0168892759    -0.7634716301     2.6534603481
 H      5.8405404306     1.6697047524     6.4078369303
 F      5.6170821032     2.5528874286     6.5124492446
 H      2.3045242785     4.3229891715     5.0088954831
 F      2.8936434963     3.8359859505     5.5155071786
 H      3.4279897961     3.9101197809     2.0388520320
 F      3.2340424033     3.0577666064     2.3159214722
 H      5.1525197969    -0.2151181922     5.9779934397
 F      6.0078109925     0.0524575905     6.1723363616
 H      0.7255807551     1.9875676407     3.1884375551
 F      0.2480943314     2.7325205306     2.9477283800
 H      3.8166853601     5.9007195809     2.6818530972
 F      3.7525765321     5.5053654878     1.8569444967
 H      4.3438442175     2.1785056139     3.1669779743
 F      4.9124119159     1.6302363356     3.6328326413
 H      4.6798746884     5.7495814592     4.5863563161
 F      4.0669769489     6.3306775755     4.2291831585
 H      5.7678663158     3.8529809763     5.4440365876
 F      5.8357740763     4.5722754302     4.8793304476
 H      2.6506673476     2.3745830786     6.2902448100
 F      2.4681657101     1.5550471130     6.6589492354
 H      3.0890905497     0.2018171498     5.8973685689
 F      3.6054646408    -0.4817327487     5.5702503420
          30
Energy: -120.85413757283195 Kcal/mole
 H      1.7771110086    -0.1570790576     3.3039610134
 F      1.5688519532     0.6903956482     3.5855702976
 H      0.6331881796     4.0604513051     3.3983646133
 F      1.1195155167     4.7361347168     3.7828469256
 H      3.3939181249    -1.4125194258     2.7003185532
 F      2.4823612522    -1.5038435826     2.6601568011
 H      4.9646187996    -0.0057846676     3.1172489558
 F      4.9043672835    -0.8691626328     2.8142023522
 H      5.8435035232     1.7018323966     6.3275479498
 F      5.6829062080     2.5933410827     6.4700602823
 H      2.2383095051     4.2577173193     4.8820470231
 F      2.8842648758     3.8507876508     5.3900223217
 H      3.3517280340     3.9128171753     2.0559319769
 F      3.1200205269     3.0546842111     2.2813392681
 H      5.1206107665    -0.3045895060     5.9935450738
 F      5.9516672809     0.0597897945     6.1256881598
 H      0.4991082755     1.8666961101     3.0477026439
 F      0.0165339692     2.6156802993     2.8308300469