          4
Energy: 145.96100584493234 Kcal/mole
 H      1.2970835929     1.9718406272     1.9608919684
 F      2.2140835929     1.9718406272     1.9608919684
 H      0.2729718684    -0.4029227491    -2.0166156084
 F      1.1899718684    -0.4029227491    -2.0166156084
