          4
Energy: 56.615694907183986 Kcal/mole
 H      3.7387547607     3.7499253431     3.7494394292
 F      2.9017602869     3.7139460057     3.3765658071
 H     -3.7327634535    -3.7499284018    -3.7499984089
 F     -2.8188047461    -3.6826283101    -3.7177621133
