          4
Energy: 56.44781895879787 Kcal/mole
 H      3.7408691328     3.7498192671     3.7498690473
 F      2.8857015703     3.7478076007     3.4188503269
 H     -3.7301754539    -3.7499927667    -3.7495915513
 F     -2.8137859843    -3.7385251032    -3.7181617458
