          4
Energy: 56.88636854743183 Kcal/mole
 H      3.7408526300     3.7328183699     3.7472892305
 F      3.0050584668     3.7093356338     3.2005310476
 H     -3.7489488261    -3.7345991408    -3.7344249093
 F     -2.8466448595    -3.7327880940    -3.5709217843
          4
Energy: 56.995120420835775 Kcal/mole
 H      3.7353739490     3.7443521992     3.7405273860
 F      2.9935615521     3.7111685010     3.2024732901
 H     -3.7499271706    -3.6761816558    -3.7040325090
 F     -2.8435973913    -3.7378726408    -3.5789343333
          4
Energy: 56.956824019921555 Kcal/mole
 H      3.7014883105     3.7425859452     3.7473423292
 F      2.9903106532     3.7346608873     3.1685051040
 H     -3.7389997382    -3.7321510600    -3.7199215270
 F     -2.8325025511    -3.7491371223    -3.5825777121
          4
Energy: 56.99686958100531 Kcal/mole
 H      3.7192491247     3.7320167411     3.7324750008
 F      2.9325988462     3.7334447577     3.2612337673
 H     -3.7401247254    -3.7163368372    -3.6682984734
 F     -2.8259856633    -3.7391583895    -3.5996111246
          4
Energy: 56.84990165098583 Kcal/mole
 H      3.7281383878     3.7430940622     3.7384300248
 F      2.9372428591     3.7229003124     3.2747863307
 H     -3.7471061071    -3.6914173624    -3.7489317088
 F     -2.8423170533    -3.7364253367    -3.6067344852
          4
Energy: 56.77442295262328 Kcal/mole
 H      3.7459998650     3.7483597754     3.7155615218
 F      2.9318951091     3.7136846658     3.2949428309
 H     -3.7485292142    -3.7486568636    -3.7458189354
 F     -2.8422415607    -3.7333889134    -3.6068996106
          4
Energy: 56.76484782925554 Kcal/mole
 H      3.7337138361     3.7483413795     3.7384952326
 F      2.9325468545     3.7136856417     3.2937262506
 H     -3.7492404972    -3.7494890823    -3.7409944112
 F     -2.8422038288    -3.7333447661    -3.6071555405
          4
Energy: 56.77476787400232 Kcal/mole
 H      3.7305425012     3.7386040603     3.7447953711
 F      2.9327150865     3.7142021840     3.2933920428
 H     -3.7494248266    -3.7487237533    -3.7398297395
 F     -2.8421940506    -3.7333853651    -3.6072173236
          4
Energy: 56.76009407862845 Kcal/mole
 H      3.7386004680     3.7492990935     3.7294929770
 F      2.9322876300     3.7136348372     3.2942037994
 H     -3.7479727077    -3.7498570986    -3.7492659169
 F     -2.8422710821    -3.7333252437    -3.6067167562
          4
Energy: 56.74790759113616 Kcal/mole
 H      3.7276695189     3.7498245386     3.7490886567
 F      2.9328674916     3.7136069635     3.2931642939
 H     -3.7479111227    -3.7499264414    -3.7496485892
 F     -2.8422743491    -3.7333215652    -3.6066964563
