          4
Energy: 56.74790759113616 Kcal/mole
 H      3.7276695189     3.7498245386     3.7490886567
 F      2.9328674916     3.7136069635     3.2931642939
 H     -3.7479111227    -3.7499264414    -3.7496485892
 F     -2.8422743491    -3.7333215652    -3.6066964563
