          4
Energy: 56.834275022549505 Kcal/mole
 H      3.7386377303     3.7493846550     3.7492855555
 F      3.0051759621     3.7084568307     3.2004251471
 H     -3.7461177026    -3.7499185368    -3.7484628332
 F     -2.8467950440    -3.7319754354    -3.5701771048
