          10
Energy: -37.872489194586365 Kcal/mole
 H      2.2552860238    -0.0532387947    -0.6791195921
 F      2.1968952500     0.4472702547    -1.4452594024
 H      2.5511082376    -0.1214447524     1.5739764492
 F      2.4231326455    -0.6787065442     0.8570590597
 H      2.9999019854     3.3066317685     0.5823810651
 F      3.1616420420     3.3460991089     1.4841412788
 H      2.9431702216     1.9499322984     2.3465769730
 F      2.7921096743     1.1055857259     2.6708431857
 H      2.4820433459     2.0752777502    -1.2643045069
 F      2.6581611387     2.9368385029    -1.0043341386
