          10
Energy: -37.88490990817132 Kcal/mole
 H      0.6644371544     0.2376792086     5.2747423030
 F     -0.2453922604     0.2645125843     5.1634795239
 H      2.7144517503     0.1708625789     4.3432730217
 F      2.3229090107     0.1911600096     5.1722309805
 H      0.2667124218     0.3048630794     1.6660586425
 F      1.0707071800     0.2943603122     1.2251832399
 H      2.4693270160     0.1974327875     2.1153036516
 F      3.1386566568     0.1463883534     2.7400286293
 H     -0.8498997710     0.2983545850     3.6178875230
 F     -1.0218331229     0.3128060297     2.7172660274
