          10
Energy: -37.88352883892165 Kcal/mole
 H      0.6463045242     0.3391283843     5.2717364371
 F     -0.2606805337     0.4090318510     5.1560618502
 H      2.6927738068     0.1657101116     4.3496322714
 F      2.3003217109     0.1994840765     5.1777202327
 H      0.2646347301     0.3467298157     1.6598732755
 F      1.0661607921     0.2720417558     1.2207074007
 H      2.4557895446     0.1723944060     2.1187301096
 F      3.1242400993     0.1315704860     2.7451455176
 H     -0.8557492957     0.4599677714     3.6071253283
 F     -1.0187565406     0.4682850256     2.7047681587
          10
Energy: -37.883303397234016 Kcal/mole
 H      0.6460091293     0.3380275236     5.2733692671
 F     -0.2606648637     0.4090902491     5.1559752323
 H      2.6913632003     0.1679061899     4.3488788733
 F      2.3003965404     0.1993675796     5.1777601988
 H      0.2624468467     0.3415372002     1.6567132070
 F      1.0662768543     0.2723172120     1.2208750350
 H      2.4591999413     0.1755841840     2.1153268044
 F      3.1240591856     0.1314012757     2.7453260551
 H     -0.8538973911     0.4585260782     3.6067742147
 F     -1.0188547799     0.4683615041     2.7047867845
          10
Energy: -37.882785621160394 Kcal/mole
 H      0.6460740317     0.3317977817     5.2688304418
 F     -0.2606683066     0.4094207225     5.1562160065
 H      2.6945741897     0.1669375313     4.3504388906
 F      2.3002262048     0.1994189647     5.1776774434
 H      0.2551575174     0.3370492686     1.6726525314
 F      1.0562764926     0.2570144701     1.2336857689
 H      2.4533496220     0.1712142606     2.1212684406
 F      3.1243695315     0.1316330900     2.7450108650
 H     -0.8599854267     0.4573613502     3.6134504350
 F     -1.0325071726     0.4717643968     2.7129406908
          10
Energy: -37.880810468260165 Kcal/mole
 H      0.6459491930     0.3336454197     5.2710696738
 F     -0.2606616842     0.4093227096     5.1560972204
 H      2.6898293237     0.1636567525     4.3483298247
 F      2.3004779090     0.1995930024     5.1777893245
 H      0.2542360619     0.3409228481     1.6702386083
 F      1.0563253737     0.2568089857     1.2338138220
 H      2.4555767760     0.1753911529     2.1191601978
 F      3.1242513862     0.1314115155     2.7451227024
 H     -0.8562204085     0.4564263236     3.6127050447
 F     -1.0327068981     0.4718139978     2.7129802320
          10
Energy: -37.88243481932207 Kcal/mole
 H      0.6438248495     0.3310410753     5.2745921310
 F     -0.2633590417     0.4008472548     5.1604278426
 H      2.6994876001     0.1690445007     4.3527199064
 F      2.2999655597     0.1993071948     5.1775564408
 H      0.2557750266     0.3339539201     1.6743285341
 F      1.0562437351     0.2571786712     1.2335968609
 H      2.4538831661     0.1730590866     2.1208148109
 F      3.1243412283     0.1315352262     2.7450349290
 H     -0.8639442375     0.4591915212     3.6142266713
 F     -1.0322971668     0.4716673105     2.7128995133
          10
Energy: -37.881862493043656 Kcal/mole
 H      0.6444648030     0.3362749761     5.2725598796
 F     -0.2633929898     0.4005696084     5.1605356488
 H      2.6942641483     0.1622589516     4.3504887914
 F      2.3002426518     0.1996671525     5.1776747963
 H      0.2547644138     0.3511806300     1.6612189623
 F      1.0594650333     0.2848633238     1.2265375527
 H      2.4545248475     0.1816611138     2.1207605789
 F      3.1243071885     0.1310789086     2.7450378059
 H     -0.8620953011     0.4534746205     3.6137809845
 F     -1.0323952486     0.4719705789     2.7129231559
          10
Energy: -37.88221754562508 Kcal/mole
 H      0.6432703207     0.3298387680     5.2781954621
 F     -0.2633296252     0.4009110344     5.1602366942
 H      2.6912758586     0.1616080279     4.3491019655
 F      2.3004011736     0.1997016825     5.1777483642
 H      0.2574762394     0.3575724852     1.6651865693
 F      1.0593211773     0.2845242507     1.2263270803
 H      2.4553352374     0.1780774581     2.1196132469
 F      3.1242641992     0.1312690132     2.7450986692
 H     -0.8668404034     0.4551357726     3.6146968510
 F     -1.0321435319     0.4718824586     2.7128745713
          10
Energy: -37.88181533053378 Kcal/mole
 H      0.6432910060     0.3261197771     5.2757063283
 F     -0.2633307225     0.4011083183     5.1603687370
 H      2.6852055846     0.1618396255     4.3462565465
 F      2.3007231876     0.1996893968     5.1778993071
 H      0.2535723127     0.3558790052     1.6616307020
 F      1.0543822822     0.2862423447     1.2203336045
 H      2.4440256382     0.1786182463     2.1181353013
 F      3.1137525125     0.1299607618     2.7426249833
 H     -0.8631642824     0.4563785327     3.6140370537
 F     -1.0323385416     0.4718165330     2.7129095720
          10
Energy: -37.88072575758633 Kcal/mole
 H      0.6436085408     0.3272278940     5.2739099800
 F     -0.2633475670     0.4010495352     5.1604640291
 H      2.6836968957     0.1649612511     4.3454250309
 F      2.3008032201     0.1995238018     5.1779434171
 H      0.2521091363     0.3625239974     1.6578546857
 F      1.0544599003     0.2858898432     1.2205339134
 H      2.4455445586     0.1740146381     2.1161707273
 F      3.1136719373     0.1302049726     2.7427291994
 H     -0.8671721682     0.4653051361     3.6121807659
 F     -1.0356542732     0.4849823391     2.7110062057
          10
Energy: -37.881683631306345 Kcal/mole
 H      0.6435573103     0.3290629671     5.2754864912
 F     -0.2633448494     0.4009521889     5.1603803988
 H      2.6960115784     0.1664284570     4.3511458865
 F      2.3001499546     0.1994459699     5.1776399389
 H      0.2513600913     0.3580562619     1.6572381565
 F      1.0544996354     0.2861268463     1.2205666189
 H      2.4453928781     0.1786603828     2.1166756773
 F      3.1136799836     0.1299585266     2.7427024130
 H     -0.8686515376     0.4685510050     3.6125207183
 F     -1.0355757960     0.4848101533     2.7109881720
          10
Energy: -37.880806478078796 Kcal/mole
 H      0.6433787127     0.3204033380     5.2710521744
 F     -0.2633353752     0.4014115622     5.1606156291
 H      2.6881280783     0.1649877089     4.3474770135
 F      2.3005681561     0.1995223983     5.1778345642
 H      0.2499545618     0.3686671695     1.6549734277
 F      1.0520062379     0.2999691943     1.2157893012
 H      2.4426004815     0.1838384938     2.1127196754
 F      3.1059782640     0.1255733004     2.7431354786
 H     -0.8658058437     0.4617886007     3.6118401528
 F     -1.0357267535     0.4851688832     2.7110242744
          10
Energy: -37.8807874312476 Kcal/mole
 H      0.6432262297     0.3302929704     5.2788054091
 F     -0.2633272863     0.4008869400     5.1602043379
 H      2.6926530032     0.1680157737     4.3494843852
 F      2.3003281193     0.1993617664     5.1777280778
 H      0.2513866308     0.3630884297     1.6584074452
 F      1.0519302700     0.3002651336     1.2156071345
 H      2.4447679907     0.1921105121     2.1072420336
 F      3.1106022623     0.1352436348     2.7351909814
 H     -0.8529017136     0.4553661390     3.6103631529
 F     -1.0211697236     0.4729327037     2.7091049809
          10
Energy: -37.878773988099624 Kcal/mole
 H      0.6439928493     0.3315807233     5.2735809349
 F     -0.2633679537     0.4008186277     5.1604814842
 H      2.6982721832     0.1664285259     4.3522326420
 F      2.3000300348     0.1994459662     5.1775822891
 H      0.2502931431     0.3523931541     1.6594082331
 F      1.0476980878     0.2853233719     1.2115957740
 H      2.4475142667     0.1839301311     2.1036624345
 F      3.1104565787     0.1356775851     2.7353808708
 H     -0.8542201835     0.4527953691     3.6105543106
 F     -1.0210997818     0.4730690771     2.7090948404
          10
Energy: -37.880737419178644 Kcal/mole
 H      0.6441522221     0.3353943373     5.2745646491
 F     -0.2633764081     0.4006163243     5.1604293004
 H      2.6880014202     0.1706571227     4.3472025447
 F      2.3005748750     0.1992216490     5.1778491241
 H      0.2486854762     0.3434011680     1.6577910799
 F      1.0477833708     0.2858003760     1.2116815602
 H      2.4445546541     0.1825795150     2.1066815859
 F      3.1106135793     0.1357492322     2.7352207118
 H     -0.8547609185     0.4476530696     3.6116258752
 F     -1.0257685952     0.4617813222     2.7108230294
          10
Energy: -37.88330289867625 Kcal/mole
 H      0.6449344752     0.3419730175     5.2718680182
 F     -0.2634179048     0.4002673405     5.1605723505
 H      2.6849479338     0.1821506387     4.3428273346
 F      2.2983132410     0.2215149499     5.1734012718
 H      0.2482477651     0.3529707842     1.6556577329
 F      1.0478065903     0.2852927299     1.2117947293
 H      2.4444323723     0.1823121225     2.1067913272
 F      3.1106200661     0.1357634167     2.7352148903
 H     -0.8539993739     0.4470115065     3.6114706482
 F     -1.0258089934     0.4618153557     2.7108312639
          10
Energy: -37.88330966586872 Kcal/mole
 H      0.6443144114     0.3361273415     5.2736877515
 F     -0.2633850118     0.4005774401     5.1604758178
 H      2.6925185448     0.1846320496     4.3462816734
 F      2.2979116375     0.2213833168     5.1732180271
 H      0.2490753086     0.3499472500     1.6575933526
 F      1.0477626911     0.2854531214     1.2116920492
 H      2.4456399173     0.1822414765     2.1085374053
 F      3.1116762142     0.1362630564     2.7371633959
 H     -0.8524866782     0.4483972596     3.6112023555
 F     -1.0258892384     0.4617418447     2.7108454962
          10
Energy: -37.88350765172561 Kcal/mole
 H      0.6443780496     0.3411472049     5.2758953824
 F     -0.2633883877     0.4003111480     5.1603587081
 H      2.6894651900     0.1846321428     4.3448319090
 F      2.2980736110     0.2213833119     5.1732949338
 H      0.2488212057     0.3546749233     1.6564263335
 F      1.0477761706     0.2852023293     1.2117539568
 H      2.4436929707     0.1794006785     2.1104052946
 F      3.1117794952     0.1364137541     2.7370643087
 H     -0.8567238046     0.4489017004     3.6120148398
 F     -1.0256644687     0.4617150852     2.7108023958
          10
Energy: -37.883507382765345 Kcal/mole
 H      0.6445977354     0.3397981218     5.2734425518
 F     -0.2634000415     0.4003827137     5.1604888251
 H      2.6866288404     0.1830382110     4.3435703765
 F      2.2982240728     0.2214678663     5.1733618552
 H      0.2483163445     0.3574885260     1.6550677969
 F      1.0478029524     0.2850530742     1.2118260241
 H      2.4453800371     0.1866708123     2.1091535249
 F      3.1116900002     0.1360280903     2.7371307122
 H     -0.8588685446     0.4494604695     3.6130686188
 F     -1.0259924643     0.4634205352     2.7115345307
          10
Energy: -37.8829705648383 Kcal/mole
 H      0.6447144055     0.3373335626     5.2711294546
 F     -0.2634062306     0.4005134529     5.1606115295
 H      2.6909715897     0.1882138862     4.3453944870
 F      2.2979936999     0.2211933087     5.1732650903
 H      0.2477205339     0.3490566102     1.6552861442
 F      1.0478345587     0.2855003678     1.2118144413
 H      2.4418613398     0.1806926543     2.1124543867
 F      3.1118766590     0.1363452178     2.7369556091
 H     -0.8567728258     0.4479835461     3.6126533106
 F     -1.0261036373     0.4634988826     2.7115565618
          10
Energy: -37.88337032000706 Kcal/mole
 H      0.6441608275     0.3342667158     5.2738435874
 F     -0.2633768646     0.4006761420     5.1604675511
 H      2.6870035153     0.1839708561     4.3437032117
 F      2.2982041971     0.2214183916     5.1733548086
 H      0.2467910567     0.3464607355     1.6539701223
 F      1.0478838654     0.2856380730     1.2118842532
 H      2.4453398495     0.1882236969     2.1093234443
 F      3.1116921321     0.1359457134     2.7371216984
 H     -0.8604498245     0.4495815026     3.6140899426
 F     -1.0321452139     0.4610643942     2.7133803132
          10
Energy: -37.88256958977195 Kcal/mole
 H      0.6452775795     0.3440013228     5.2700952292
 F     -0.2634361057     0.4001597436     5.1606663928
 H      2.6846195152     0.1981691982     4.3376034866
 F      2.2967067508     0.2406320758     5.1674285231
 H      0.2471663476     0.3573274020     1.6530132329
 F      1.0478639570     0.2850616214     1.2119350139
 H      2.4476065704     0.1829124055     2.1065098466
 F      3.1115718878     0.1362274651     2.7372709532
 H     -0.8658065898     0.4480412935     3.6150727007
 F     -1.0318610499     0.4611460988     2.7133281801
          10
Energy: -37.88304640959751 Kcal/mole
 H      0.6452872300     0.3437382582     5.2698795283
 F     -0.2634366176     0.4001736986     5.1606778352
 H      2.6914873196     0.1967285991     4.3409258979
 F      2.2963424297     0.2407084962     5.1672522768
 H      0.2480713676     0.3502615238     1.6557443188
 F      1.0478159478     0.2854364499     1.2117901361
 H      2.4465270666     0.1869761655     2.1079634726
 F      3.1116291530     0.1360118921     2.7371938418
 H     -0.8620944059     0.4477401917     3.6143763513
 F     -1.0320579727     0.4611620715     2.7133651199
          10
Energy: -37.88287570566021 Kcal/mole
 H      0.6454540639     0.3451707423     5.2692193963
 F     -0.2634454678     0.4000977086     5.1607128537
 H      2.6858767999     0.1948188986     4.3383711577
 F      2.2966400548     0.2408098014     5.1673877999
 H      0.2467228984     0.3500929371     1.6533306867
 F      1.0478874810     0.2854453931     1.2119181738
 H      2.4435610240     0.1879603539     2.1111952313
 F      3.1117864947     0.1359596831     2.7370224044
 H     -0.8665746742     0.4469698956     3.6151975478
 F     -1.0318203048     0.4612029339     2.7133215573
          10
Energy: -37.88285559381259 Kcal/mole
 H      0.6450470045     0.3429001540     5.2714301788
 F     -0.2634238742     0.4002181581     5.1605955768
 H      2.6900901466     0.1968865029     4.3402509230
 F      2.2964165465     0.2407001198     5.1672880827
 H      0.2460852132     0.3532262848     1.6516990174
 F      1.0479213087     0.2852791762     1.2120047300
 H      2.4461125045     0.1859277971     2.1083179248
 F      3.1116511445     0.1360675056     2.7371750389
 H     -0.8587946367     0.4495553601     3.6137724327
 F     -1.0322330178     0.4610657810     2.7133971564
          10
Energy: -37.88285539439758 Kcal/mole
 H      0.6452693945     0.3442678635     5.2702994435
 F     -0.2634356715     0.4001456042     5.1606555597
 H      2.6823739176     0.1949783844     4.3367271757
 F      2.2968258746     0.2408013411     5.1674750093
 H      0.2490758894     0.3547136944     1.6568775537
 F      1.0477626603     0.2852002726     1.2117300207
 H      2.4443638750     0.1802975786     2.1097529740
 F      3.1117439053     0.1363661757     2.7370989128
 H     -0.8608756107     0.4448064720     3.6140967968
 F     -1.0321226269     0.4613176986     2.7133799496
          10
Energy: -37.88274126071107 Kcal/mole
 H      0.6453569758     0.3437946626     5.2693267760
 F     -0.2634403175     0.4001707065     5.1607071575
 H      2.6824253013     0.1992523258     4.3365268821
 F      2.2968231488     0.2405746184     5.1674856344
 H      0.2470459173     0.3495270408     1.6539988067
 F      1.0478703456     0.2854754126     1.2118827315
 H      2.4438649566     0.1854163751     2.1106650851
 F      3.1117703718     0.1360946353     2.7370505274
 H     -0.8639693683     0.4508245383     3.6147682801
 F     -1.0319585102     0.4609984541     2.7133443289
          10
Energy: -37.88339984519175 Kcal/mole
 H      0.6447845975     0.3415506403     5.2728643836
 F     -0.2634099541     0.4002897467     5.1605194956
 H      2.6857837609     0.1907279598     4.3385650837
 F      2.2966449903     0.2410268163     5.1673775126
 H      0.2491983404     0.3505139399     1.6577313399
 F      1.0477561645     0.2854230599     1.2116847293
 H      2.4398523254     0.1794956334     2.1098808495
 F      3.1070531424     0.1257503288     2.7366531464
 H     -0.8641530579     0.4471350829     3.6147529007
 F     -1.0319487659     0.4611941711     2.7133451448
          10
Energy: -37.88374091179267 Kcal/mole
 H      0.6453395854     0.3439760419     5.2695659787
 F     -0.2634393949     0.4001610847     5.1606944683
 H      2.6869230409     0.1972298692     4.3387331029
 F      2.2965845541     0.2406819050     5.1673685995
 H      0.2477885815     0.3546750028     1.6545656151
 F      1.0478309490     0.2852023251     1.2118526637
 H      2.4401892997     0.1755336922     2.1091960814
 F      3.1070352667     0.1259605006     2.7366894717
 H     -0.8619202574     0.4453290273     3.6143041646
 F     -1.0320672108     0.4612899782     2.7133689492
          10
Energy: -37.88316953694036 Kcal/mole
 H      0.6451726726     0.3409687655     5.2693632154
 F     -0.2634305406     0.4003206138     5.1607052244
 H      2.6839833037     0.1938452481     4.3375394637
 F      2.2967405004     0.2408614513     5.1674319193
 H      0.2441329766     0.3456124109     1.6585735666
 F      1.0433286161     0.2828894213     1.2133307605
 H      2.4404825803     0.1723585805     2.1086423566
 F      3.1070197088     0.1261289329     2.7367188455
 H     -0.8594718436     0.4505471730     3.6139147064
 F     -1.0321970935     0.4610131676     2.7133896091
          10
Energy: -37.88295063723814 Kcal/mole
 H      0.6452751855     0.3489590890     5.2725130212
 F     -0.2634359787     0.3998967456     5.1605381345
 H      2.6852222527     0.1901784536     4.3383352220
 F      2.2966747770     0.2410559663     5.1673897062
 H      0.2415357134     0.3498933461     1.6532452740
 F      1.0434663949     0.2826623275     1.2136134141
 H      2.4409282701     0.1768170674     2.1085143865
 F      3.1069960660     0.1258924205     2.7367256341
 H     -0.8630385541     0.4471195525     3.6145444442
 F     -1.0320078878     0.4611949950     2.7133562029
          10
Energy: -37.882815725225385 Kcal/mole
 H      0.6451766871     0.3480704113     5.2729036283
 F     -0.2634307536     0.3999438879     5.1605174137
 H      2.6834400803     0.1995264652     4.3369849857
 F      2.2967693171     0.2405600759     5.1674613331
 H      0.2435583226     0.3526022331     1.6564941195
 F      1.0433591002     0.2825186273     1.2134410704
 H      2.4403976783     0.1723996070     2.1087354921
 F      3.1070242127     0.1261267566     2.7367139049
 H     -0.8593942141     0.4445214022     3.6138085446
 F     -1.0322012116     0.4613328209     2.7133952407
          10
Energy: -37.88378591529229 Kcal/mole
 H      0.6451955757     0.3476472541     5.2725541925
 F     -0.2634317556     0.3999663354     5.1605359505
 H      2.6845505772     0.1902013660     4.3380193764
 F      2.2967104078     0.2410547509     5.1674064611
 H      0.2432692255     0.3486029967     1.6565857366
 F      1.0433744361     0.2827307776     1.2134362103
 H      2.4393227620     0.1777175300     2.1102951358
 F      3.1070812345     0.1258446531     2.7366311694
 H     -0.8609372089     0.4447410797     3.6141073045
 F     -1.0321193593     0.4613211675     2.7133793922
          10
Energy: -37.88357897651136 Kcal/mole
 H      0.6447736618     0.3436545761     5.2740257545
 F     -0.2634093740     0.4001781377     5.1604578875
 H      2.6847256646     0.1897553619     4.3381287510
 F      2.2967011198     0.2410784103     5.1674006590
 H      0.2440978528     0.3535150785     1.6573215344
 F      1.0433304794     0.2824702030     1.2133971779
 H      2.4387470292     0.1766520089     2.1108221649
 F      3.1071117758     0.1259011765     2.7366032117
 H     -0.8629987747     0.4460779787     3.6145200825
 F     -1.0320099980     0.4612502481     2.7133574953
          10
Energy: -37.884189466088344 Kcal/mole
 H      0.6450926767     0.3444343673     5.2718372583
 F     -0.2634262970     0.4001367716     5.1605739822
 H      2.6864524198     0.1920118617     4.3388024780
 F      2.2966095195     0.2409587083     5.1673649193
 H      0.2446130285     0.3517776702     1.6585214956
 F      1.0433031505     0.2825623685     1.2133335228
 H      2.4396135597     0.1762356095     2.1098644475
 F      3.1070658084     0.1259232655     2.7366540164
 H     -0.8630317643     0.4459285320     3.6145237398
 F     -1.0320082480     0.4612581759     2.7133573012
          10
Energy: -37.88368108232217 Kcal/mole
 H      0.6448916387     0.3425599429     5.2725213946
 F     -0.2634156324     0.4002362055     5.1605376903
 H      2.6854491824     0.1917340582     4.3383476807
 F      2.2966627389     0.2409734451     5.1673890453
 H      0.2453629724     0.3516600172     1.6598823537
 F      1.0432633677     0.2825686097     1.2132613324
 H      2.4398861768     0.1798572413     2.1098759331
 F      3.1070513467     0.1257311463     2.7366534072
 H     -0.8609839074     0.4474506638     3.6141617613
 F     -1.0321168820     0.4611774303     2.7133765034
          10
Energy: -37.88375359769043 Kcal/mole
 H      0.6453517891     0.3446476130     5.2698082221
 F     -0.2634400423     0.4001254594     5.1606816179
 H      2.6854595357     0.1914302691     4.3383706380
 F      2.2966621897     0.2409895604     5.1673878275
 H      0.2420724819     0.3497529554     1.6542442966
 F      1.0434379206     0.2826697749     1.2135604183
 H      2.4405943529     0.1769105120     2.1088762112
 F      3.1070137795     0.1258874635     2.7367064401
 H     -0.8616477499     0.4504557915     3.6143281211
 F     -1.0320816667     0.4610180152     2.7133676784
          10
Energy: -37.883979402974234 Kcal/mole
 H      0.6454782245     0.3471401675     5.2699922342
 F     -0.2634467494     0.3999932351     5.1606718565
 H      2.6864633035     0.1919098194     4.3388136337
 F      2.2966089421     0.2409641214     5.1673643276
 H      0.2431810762     0.3510804051     1.6560506859
 F      1.0433791122     0.2825993568     1.2134645935
 H      2.4397054689     0.1727374144     2.1094961766
 F      3.1070609328     0.1261088367     2.7366735524
 H     -0.8605924047     0.4490415741     3.6141100556
 F     -1.0321376504     0.4610930362     2.7133792462
          10
Energy: -37.88355845279068 Kcal/mole
 H      0.6456347819     0.3455912850     5.2679091565
 F     -0.2634550544     0.4000753998     5.1607823589
 H      2.6847717210     0.1900703905     4.3381308687
 F      2.2966986766     0.2410616988     5.1674005467
 H      0.2430810700     0.3521690720     1.6556998571
 F      1.0433844173     0.2825416055     1.2134832042
 H      2.4415718338     0.1738568786     2.1076004709
 F      3.1069619264     0.1260494517     2.7367741152
 H     -0.8611517414     0.4499845266     3.6142284875
 F     -1.0321079788     0.4610430147     2.7133729637
          10
Energy: -37.88365477452126 Kcal/mole
 H      0.6453161409     0.3446709119     5.2701164725
 F     -0.2634381513     0.4001242235     5.1606652659
 H      2.6837591217     0.1922730831     4.3375255249
 F      2.2967523927     0.2409448511     5.1674326587
 H      0.2432595471     0.3502779113     1.6563158739
 F      1.0433749495     0.2826419272     1.2134505259
 H      2.4385223737     0.1747041390     2.1109073768
 F      3.1071236933     0.1260045065     2.7365986915
 H     -0.8647400807     0.4435633419     3.6147988121
 F     -1.0319176257     0.4613836437     2.7133427093
          10
Energy: -37.88351580201669 Kcal/mole
 H      0.6448452328     0.3404094951     5.2717657879
 F     -0.2634131707     0.4003502818     5.1605777735
 H      2.6857954347     0.1947024670     4.3383394280
 F      2.2966443710     0.2408159779     5.1673894831
 H      0.2449054610     0.3547141228     1.6585792883
 F      1.0432876376     0.2824065965     1.2133304570
 H      2.4391556847     0.1771870477     2.1104296036
 F      3.1070900976     0.1258727939     2.7366240362
 H     -0.8619417300     0.4484045508     3.6143571759
 F     -1.0320660718     0.4611268288     2.7133661371
          10
Energy: -37.88351157141082 Kcal/mole
 H      0.6454790262     0.3450052068     5.2689259508
 F     -0.2634467920     0.4001064899     5.1607284203
 H      2.6851078761     0.1977485630     4.3378536049
 F      2.2966808444     0.2406543895     5.1674152549
 H      0.2435071843     0.3462479614     1.6573580705
 F      1.0433618130     0.2828557068     1.2133952398
 H      2.4394685100     0.1750277101     2.1099231954
 F      3.1070735029     0.1259873418     2.7366509000
 H     -0.8621732861     0.4452648551     3.6143507726
 F     -1.0320537882     0.4612933824     2.7133664768
          10
Energy: -37.88418379626924 Kcal/mole
 H      0.6451462108     0.3447343659     5.2715494849
 F     -0.2634291369     0.4001208574     5.1605892479
 H      2.6847068348     0.1917749374     4.3379975511
 F      2.2967021187     0.2409712765     5.1674076189
 H      0.2429716484     0.3479594992     1.6561432853
 F      1.0433902219     0.2827649136     1.2134596813
 H      2.4404202138     0.1771263426     2.1090786928
 F      3.1070230172     0.1258760142     2.7366956989
 H     -0.8606893168     0.4471835713     3.6141016297
 F     -1.0321325094     0.4611915989     2.7133796932
          10
Energy: -37.88304633678382 Kcal/mole
 H      0.6382062859     0.3483945230     5.2709434699
 F     -0.2705850058     0.4086335818     5.1643665313
 H      2.6888739307     0.1916421678     4.3399683276
 F      2.2964810639     0.2409783197     5.1673030737
 H      0.2441839406     0.3503174297     1.6579756276
 F      1.0433259126     0.2826398309     1.2133624798
 H      2.4383973240     0.1783221908     2.1113337891
 F      3.1071303268     0.1258125772     2.7365760713
 H     -0.8646688659     0.4535269412     3.6149245732
 F     -1.0319214035     0.4608550978     2.7133360380
          10
Energy: -37.88325427574466 Kcal/mole
 H      0.6381160239     0.3533798917     5.2743507731
 F     -0.2705802177     0.4083691195     5.1641857817
 H      2.6846785503     0.1934616504     4.3378860867
 F      2.2967036191     0.2408818003     5.1674135318
 H      0.2452512408     0.3515832335     1.6596945573
 F      1.0432692948     0.2825726829     1.2132712946
 H      2.4398018379     0.1792370279     2.1099124775
 F      3.1070558206     0.1257640472     2.7366514686
 H     -0.8636350651     0.4476744215     3.6146645579
 F     -1.0319762442     0.4611655605     2.7133498312
          10
Energy: -37.88400404819515 Kcal/mole
 H      0.6442290911     0.3523896523     5.2728692852
 F     -0.2642609483     0.4113021609     5.1630322942
 H      2.6846610097     0.1916914326     4.3379810727
 F      2.2967045496     0.2409757063     5.1674084930
 H      0.2433457775     0.3472484422     1.6569229774
 F      1.0433703752     0.2828026336     1.2134183205
 H      2.4377429016     0.1730910174     2.1116178764
 F      3.1071650424     0.1260900789     2.7365610011
 H     -0.8617785488     0.4537359615     3.6143850189
 F     -1.0320747281     0.4608440098     2.7133646601
          10
Energy: -37.88357519311933 Kcal/mole
 H      0.6441400988     0.3534297716     5.2741501558
 F     -0.2642562275     0.4112469849     5.1629643470
 H      2.6864188232     0.1951605180     4.3386069906
 F      2.2966113017     0.2407916793     5.1673752895
 H      0.2448061045     0.3544648577     1.6584415032
 F      1.0432929082     0.2824198194     1.2133377662
 H      2.4392108921     0.1781715791     2.1104522129
 F      3.1070871689     0.1258205668     2.7366228368
 H     -0.8612328089     0.4532254550     3.6142775116
 F     -1.0321036784     0.4608710910     2.7133703631
          10
Energy: -37.88375327707345 Kcal/mole
 H      0.6442640082     0.3515337613     5.2721151644
 F     -0.2642628006     0.4113475639     5.1630722986
 H      2.6869265863     0.1900216664     4.3391458802
 F      2.2965843660     0.2410642835     5.1673467026
 H      0.2433611393     0.3470812615     1.6569749446
 F      1.0433695603     0.2828115021     1.2134155637
 H      2.4419437751     0.1739838890     2.1072170232
 F      3.1069421958     0.1260427141     2.7367944562
 H     -0.8628289572     0.4533383462     3.6145796539
 F     -1.0320190064     0.4608651024     2.7133543351
          10
Energy: -37.88376759577096 Kcal/mole
 H      0.6442742158     0.3496523083     5.2709747005
 F     -0.2642633421     0.4114473706     5.1631327975
 H      2.6848914988     0.1907267420     4.3381468453
 F      2.2966923227     0.2410268809     5.1673996991
 H      0.2453692155     0.3538364657     1.6595511010
 F      1.0432630365     0.2824531541     1.2132789046
 H      2.4404243913     0.1782549420     2.1091674909
 F      3.1070227956     0.1258161446     2.7366909884
 H     -0.8638743091     0.4506663066     3.6147487588
 F     -1.0319635529     0.4610068479     2.7133453645
          10
Energy: -37.88367812389038 Kcal/mole
 H      0.6445961448     0.3543089244     5.2708243669
 F     -0.2642804197     0.4112003479     5.1631407724
 H      2.6852642942     0.1958736714     4.3380260817
 F      2.2966725468     0.2407538482     5.1674061054
 H      0.2436203039     0.3522081006     1.6566681284
 F      1.0433558122     0.2825395352     1.2134318396
 H      2.4392289421     0.1760733183     2.1102612685
 F      3.1070862114     0.1259318747     2.7366329660
 H     -0.8656137677     0.4532589670     3.6150971018
 F     -1.0318712786     0.4608693132     2.7133268857
          10
Energy: -37.88334148948056 Kcal/mole
 H      0.6441595554     0.3499164537     5.2720856116
 F     -0.2642572596     0.4114333583     5.1630738663
 H      2.6884195472     0.1900285657     4.3398508406
 F      2.2965051679     0.2410639175     5.1673093061
 H      0.2433037811     0.3460686453     1.6570169931
 F      1.0433726030     0.2828652191     1.2134133332
 H      2.4386400142     0.1730245629     2.1106533812
 F      3.1071174527     0.1260936041     2.7366121653
 H     -0.8623170495     0.4493944471     3.6144413619