          4
Energy: -1.9018629566704122 Kcal/mole
 Kr     3.0064686956    -0.7469460161     0.8525184625
 Kr     6.1077601049     0.0219771900    -1.6794911130
 Kr     3.6841055975    -3.1686476096    -2.3382062812
 Kr     2.2811729115     0.6065228798    -2.9200295431
