          4
Energy: -0.8138548841296693 Kcal/mole
 Kr     1.8372150063     6.6874529635    -2.1558741770
 Kr    -2.8193413161     3.8104275556    -2.4156926527
 Kr    -5.3983811059     6.8229771989    -4.1578668328
 Kr    -7.0554512865     3.5921271970    -5.8894918477
          4
Energy: -0.16125070191952717 Kcal/mole
 Kr    -2.8020218945    -0.7987123282    -3.1774440380
 Kr     0.9301866844     2.8100709471    -5.0670406905
 Kr    -6.9654836278    -3.4401757200     0.6689093726
 Kr    -2.3888995310    -4.8158195708     6.2449309575
          4
Energy: -1.7054857418414027 Kcal/mole
 Kr     5.4538089338     6.3903269784     2.0419228282
 Kr     7.1469274381     3.2924865625     0.3616281040
 Kr     2.8378671942     3.5872495432     0.2692036793
 Kr     5.5595518401     5.4959472620    -2.4672601874
          4
Energy: -1.2858328327087083 Kcal/mole
 Kr    -0.6575172450    -1.1891865815    -3.3083128763
 Kr    -7.1436694207    -3.0110689712    -2.3662343695
 Kr    -2.5719729477    -3.1923899918    -0.3491121209
 Kr    -3.4983412817    -3.5890022100    -4.0203863341
          4
Energy: -1.2693861559440913 Kcal/mole
 Kr    -3.6420703589    -6.2557341586    -1.5440187760
 Kr    -5.9037364319    -2.1807686496    -3.3255803432
 Kr    -1.5587767718    -3.2444130614    -3.4103644344
 Kr    -3.3944865588     0.7867699592    -4.8903692757
          4
Energy: -1.784042046200291 Kcal/mole
 Kr    -4.0303128637    -2.2898131240    -0.1871697591
 Kr    -0.2178835472    -3.2583624524    -1.2816158512
 Kr    -1.6478124767     0.4192882952    -1.7272314752
 Kr    -1.1726370311    -1.3728014385     2.1963015373
          4
Energy: -1.590678910817064 Kcal/mole
 Kr    -6.0159513889    -4.2830815129    -1.7868479078
 Kr    -3.4821395622    -3.8092582295    -4.8986477638
 Kr    -2.0978657336    -4.8402616515    -1.2635860225
 Kr     0.4323600870    -4.5441129095    -4.5768325058
          4
Energy: -1.7159123903802733 Kcal/mole
 Kr     3.4616207982    -2.9441465420    -1.9442729751
 Kr     2.9301927063    -5.5238830083    -4.8038217801
 Kr     0.9685502812    -6.8594176666    -1.5934815994
 Kr    -0.3649952445    -3.3655529719    -3.7945650416
          4
Energy: -1.8441190361934527 Kcal/mole
 Kr     2.9990829965    -0.7200047091     0.8337462745
 Kr     6.1544613043     0.0617770024    -1.5301564595
 Kr     3.7204396432    -3.2528215364    -2.5380348522
 Kr     2.2272852247     0.6624396515    -2.8691681091
          4
Energy: -1.9018629566704122 Kcal/mole
 Kr     3.0064686956    -0.7469460161     0.8525184625
 Kr     6.1077601049     0.0219771900    -1.6794911130
 Kr     3.6841055975    -3.1686476096    -2.3382062812
 Kr     2.2811729115     0.6065228798    -2.9200295431
