          4
Energy: -1.9019214325504792 Kcal/mole
 Kr     1.7656400408     3.9811782753     1.5456094488
 Kr     1.2951774344     1.2076880809    -1.3935723801
 Kr     4.9415796980     2.9030523496    -0.7595821446
 Kr     1.9110391925     5.1078844332    -2.3522858287
