          4
Energy: -0.053021243077873655 Kcal/mole
 Kr     4.1435880027    -2.1864339655     3.3303961856
 Kr    -0.5678835624     3.8365828476     1.4123086470
 Kr    -4.7304747202    -2.8012019556     1.5637916802
 Kr     2.3751684167    -3.7773481206    -3.8670301891
