          4
Energy: -1.90178054582368 Kcal/mole
 Kr    -4.7467538941     4.2749480097     2.4786365467
 Kr    -2.6878203272     6.2528875832    -0.4127593329
 Kr    -2.1530499153     2.2421366756     0.0710401228
 Kr    -5.6501733205     3.6711478893    -1.4366544641
