          4
Energy: -1.9019490873454332 Kcal/mole
 Kr    -4.7863790317     1.1941933481     3.8465482009
 Kr    -0.8581861561     0.6510836286     2.9676926891
 Kr    -1.9555444141     3.4221795931     5.7295209715
 Kr    -2.7491931836     4.0519507503     1.7911536974
