          4
Energy: -0.26790818308801945 Kcal/mole
 Kr    -6.8547860219    -5.0964912167     1.3858120693
 Kr    -2.2904566591     2.8070731532     5.2663469042
 Kr     5.3890481864    -3.8291484228     4.4473034200
 Kr    -6.8156681380    -4.4937856405    -3.0311611897
          4
Energy: -0.3880369631009918 Kcal/mole
 Kr    -0.7016302590    -5.6346328395     0.1149609470
 Kr     7.3931214200    -3.6496457439     0.8096469460
 Kr     3.8899267651    -2.9074534384    -0.5925407239
 Kr     1.9823427199     3.6712332533    -6.6842663639
          4
Energy: -0.630948675109862 Kcal/mole
 Kr     7.0051392981    -6.2970968108     1.5029131598
 Kr    -1.0655631671    -6.4226327404     3.1024357714
 Kr     3.0687548952    -5.0885320390    -0.7318922315
 Kr     7.1038344439    -3.2521527349     4.4390327832
          4
Energy: -0.6770347689659653 Kcal/mole
 Kr    -1.2825149917    -0.9826555972    -2.7992897463
 Kr     0.2902277020     4.4832225025     0.4508821390
 Kr    -2.8314580689    -1.3527050757     4.2620378626
 Kr    -2.1724759080    -2.9506480384     0.4379717052
          4
Energy: -1.3667911041578855 Kcal/mole
 Kr     7.0987067117    -0.2373484585    -0.6419099142
 Kr     3.6500741469    -0.5601272280     5.7429185792
 Kr     3.9288043602    -0.5620539508     1.7330197390
 Kr     7.1250726217    -2.2388287099     2.8527183283
          4
Energy: -0.5292866330575831 Kcal/mole
 Kr     0.4589896276    -2.9494892916    -4.3385415159
 Kr    -6.4565648100    -2.0113168338    -0.6838002170
 Kr     3.8636790527    -1.2247112912     1.4364106394
 Kr    -3.7893767165    -0.6949699499    -3.6891239296
          4
Energy: -1.690840969581327 Kcal/mole
 Kr    -2.0335653156     2.1327249440    -0.3778675851
 Kr    -5.5292109951     0.9178424339    -3.3101531276
 Kr    -5.7214489840     3.3453998160    -0.2065021741
 Kr    -4.5655546590    -0.7062699511     0.3391741857
          4
Energy: -1.716098712065399 Kcal/mole
 Kr    -0.7822906782     3.0857876901    -3.7248944091
 Kr    -4.4434522602     5.7143031607    -2.4506695409
 Kr    -4.7039480043     2.6656856150    -5.0275316848
 Kr    -4.1433277599     1.6580915257    -1.2543357377
          4
Energy: -1.7598403892260794 Kcal/mole
 Kr    -5.0682240221     4.4249713932     2.6695542076
 Kr    -2.6272029701     6.1944856567    -0.0410328865
 Kr    -1.9716754116     2.2892643763     0.2401387599
 Kr    -5.5920839652     3.8156974797    -1.6201671420
          4
Energy: -1.90178054582368 Kcal/mole
 Kr    -4.7467538941     4.2749480097     2.4786365467
 Kr    -2.6878203272     6.2528875832    -0.4127593329
 Kr    -2.1530499153     2.2421366756     0.0710401228
 Kr    -5.6501733205     3.6711478893    -1.4366544641
