          6
Energy: -5.502845208808574 Kcal/mole
 Xe    -8.7966554888     4.6081276519    -2.3429987816
 Xe    -2.7179273945     5.7607353283    -1.5221591515
 Xe    -5.3050110608     4.9899715748    -5.0053605873
 Xe    -6.1977165831     5.3791603577     1.1296538863
 Xe    -5.2107578086     2.1294654626    -1.6891094036
 Xe    -6.2919479632     8.2146599724    -2.2202002435
