          6
Energy: -2.031748995350541 Kcal/mole
 Xe    -0.0156249117    -4.1296695413    -3.0054123049
 Xe     4.6144699607     0.3219353913    -2.0840584680
 Xe     2.1230419928     2.4043570475     5.1877979813
 Xe    -4.2616555889    -3.7961356083    -1.9338507267
 Xe    -4.2412476999    -6.5894241410     1.0989894703
 Xe    -1.4858077502    -7.9790331487    -2.4025465292
          6
Energy: -4.157897264911016 Kcal/mole
 Xe    -1.8684543901    -8.2847015380    -1.8092287125
 Xe    -5.5243946605    -3.2282955745     3.7792512874
 Xe    -7.3471169987    -4.6656608380    -0.6037125132
 Xe    -2.6824976720    -4.4359889067    -0.1569736150
 Xe    -5.2332462991    -8.0725064246     0.6730799657
 Xe    -6.4641842583    -7.5307267694    -3.6318814213
          6
Energy: -3.5735450816382515 Kcal/mole
 Xe    -2.8732791121    -7.4200023732    -4.3387193317
 Xe    -7.4219914100    -0.7186618425    -4.1283133481
 Xe    -6.3851861152    -4.2555578229    -6.6639570670
 Xe    -2.5649879585    -6.5644697828    -0.3004744937
 Xe    -5.2758280820    -0.0827930128    -8.0577863869
 Xe    -3.5857338319    -2.5575498274    -3.4724012719
          6
Energy: -4.4960412161221335 Kcal/mole
 Xe    -5.0915120901    -6.9409323445     1.7837532305
 Xe    -8.5054766624    -5.9492689705    -1.7253987125
 Xe    -8.0729782640    -3.3516281236     2.0318960766
 Xe    -6.7287015427    -3.6162687495    -4.7961216618
 Xe    -4.6723060919    -7.5868904853    -2.2576416979
 Xe    -4.4235638018    -3.3378539933    -1.3031407754
          6
Energy: -4.716554749119457 Kcal/mole
 Xe    -4.8026490347    -3.2712565456     0.4290760434
 Xe    -6.2098065265    -7.0030602714     1.5011318608
 Xe    -6.9481983319    -2.4521664494    -4.0928418249
 Xe    -9.0076623844    -4.2458159317    -0.6830588085
 Xe    -7.2867710735     0.0638748791    -0.5990507340
 Xe    -7.8969123131    -3.0052904344     3.6223046219
          6
Energy: -4.75345886547513 Kcal/mole
 Xe     0.4189103646    -5.9803533956     4.8007542720
 Xe    -2.9812938955    -8.0010609358     2.5597137345
 Xe    -3.4013093995    -3.6141975619     2.8373807800
 Xe     0.1281130986    -5.8682413333     0.4381996938
 Xe    -5.4512202597    -5.3825635884    -0.4307091946
 Xe    -7.0047643426    -6.1963166483     3.6085256626
          6
Energy: -4.992087252026671 Kcal/mole
 Xe    -2.0500834875    -6.4848077834    -0.3028268568
 Xe    -0.6492489182    -1.1682491965    -2.4821643730
 Xe    -5.1860842209    -3.8101695643     2.1000516364
 Xe    -0.9691219819    -2.6322234196     1.5993115457
 Xe    -4.0159898669     0.2248695778     0.8630579872
 Xe    -4.2443712829    -3.2535496125    -2.1933591681
          6
Energy: -4.989711494833797 Kcal/mole
 Xe    -5.3031592658    -3.1081454258    -0.1963545492
 Xe    -7.6338266608    -0.5979325566     3.3897811448
 Xe    -6.4808081165    -7.3402963867    -0.0697761134
 Xe    -5.5237026458    -4.9116680495     3.8608380435
 Xe    -9.3160791945    -4.5114009564     1.9418697262
 Xe    -8.9921461751    -1.1315361452    -0.7739076274
          6
Energy: -5.20649151809416 Kcal/mole
 Xe    -5.5953333377    -2.2244176915     0.3220811591
 Xe    -6.7731526729     0.7021620351     3.4066460299
 Xe    -2.6333154646    -4.9958581732     2.2614120180
 Xe    -2.7457667184    -0.8853761678     3.6048669786
 Xe    -6.3542221158    -3.5818876978     4.4010622663
 Xe    -9.6810316887    -2.4497868257     1.5868046471
          6
Energy: -5.325987466117082 Kcal/mole
 Xe    -5.4960051387    -2.0093919439     0.3034738372
 Xe    -6.9763126432     0.6659349835     3.4766387947
 Xe    -2.9022185208    -5.0513394627     2.1347878226
 Xe    -2.8829401032    -0.9390514141     3.7115773634
 Xe    -6.3542221158    -3.5818876978     4.4010622663
 Xe    -9.6310255622    -2.3981858098     1.7448995874
