          6
Energy: -1.0210195685987427 Kcal/mole
 Xe     7.1870273941    -4.5984301111     2.0006234098
 Xe     7.4909144143    -0.8298386950    -0.1583475147
 Xe     4.5288625987    -3.0708381976    -2.9991994060
 Xe     8.0944062732     2.8937081142     6.5579946496
 Xe    -6.0721369910    -6.5117155832     9.5749831077
 Xe    -2.3842935704     7.7607235914    -1.7009548768
          6
Energy: -1.0026917431549311 Kcal/mole
 Xe    -1.4734516256    -5.8831369664     6.6642863836
 Xe    -6.9393467333    -7.9530830545     4.8567097849
 Xe     1.6912464556    -3.0170214027     4.9671001508
 Xe     4.5239905367    -6.3240404643     7.2294143661
 Xe     3.3259113187     8.2968186782     5.9695713651
 Xe     3.0709793193     8.9345575415    -7.5648988551
          6
Energy: -3.0745347481417693 Kcal/mole
 Xe     5.2496554839     5.9346917325     2.2968601032
 Xe     3.9738173122     2.2684281178    -1.7212355327
 Xe    -0.4298209843     1.2329172286    -1.1992812096
 Xe    -1.1494816504     6.3171034807     1.0572346694
 Xe    -4.3867537639     3.8538359952    -1.0446069411
 Xe     2.3884156561     6.6212404660    -1.0676222051
          6
Energy: -4.066159690247523 Kcal/mole
 Xe     6.7555500880     6.4830015873    -3.2976329900
 Xe     3.9250673056     5.3168127912    -6.9203711892
 Xe     5.7588461789     3.3184901619    -0.3552722790
 Xe     4.3389920693     1.9442902634    -3.8719390734
 Xe     9.4696596868     2.7827233113    -2.9580010953
 Xe     6.9745115540    -0.5032614066    -1.1389986744
          6
Energy: -3.9069884319299195 Kcal/mole
 Xe     2.4760167097    -0.7123500676    -1.1270367848
 Xe     5.7934606334     6.1542553632    -0.6314915950
 Xe     6.6261473767     1.7515675348     0.4153573006
 Xe     8.3756049671     4.9008852148    -3.7163904847
 Xe     6.5515861161     0.6819565897    -4.0328587514
 Xe     3.8159847024     3.3118438963    -3.1817666134
          6
Energy: -4.269801950980934 Kcal/mole
 Xe     7.8799886717    -4.1166598422    -9.2891086653
 Xe     7.7565269366    -0.0508374689    -7.5538622065
 Xe     5.1013701823     0.9995693224    -3.9277210844
 Xe     2.7776994287    -0.5267902150    -7.4059907871
 Xe     4.9380102754     4.1356940056    -7.5546133567
 Xe     5.6818502139    -3.5060623247    -5.7477940254
          6
Energy: -4.70076935402068 Kcal/mole
 Xe     6.4872189987     0.3535080006    -7.0796655366
 Xe     4.5907592872     4.1438171358    -8.4621291253
 Xe     3.6918896148    -1.4614637552    -4.2526090098
 Xe     2.1421803495     0.6316824665    -7.8681421630
 Xe     3.5696200591     2.6584776750    -4.5277151616
 Xe     3.1980625812    -3.9482427210    -7.4816806724
          6
Energy: -4.732648439236192 Kcal/mole
 Xe     4.5036670114     0.4512432540    -7.1451312307
 Xe     7.7748219016     2.9469844452    -5.1264269589
 Xe     1.1975225190    -0.7737562489    -3.5408832673
 Xe     4.4507683914     4.6738941534    -7.2911273058
 Xe     3.6203531159     2.8984137196    -2.9823537089
 Xe     0.4314179613     2.7648572403    -6.6484169658
          6
Energy: -5.215626559568215 Kcal/mole
 Xe     5.7573462186     0.7804290703    -5.6568766328
 Xe     5.8050300897     5.0734639919    -5.5935338202
 Xe     6.2312690683    -0.6176027266    -1.4478529327
 Xe     1.9897064765     2.7951255192    -6.1528506080
 Xe     4.0407422853     3.1113709057    -2.1511431991
 Xe     1.9657466397    -0.5437271928    -3.3009765736
          6
Energy: -5.325988877098715 Kcal/mole
 Xe     5.6106803514     0.7934202707    -5.5970457538
 Xe     5.5997288147     5.2026179801    -5.6662130899
 Xe     5.9866400165    -0.8169279442    -1.5073459228
 Xe     1.8004120183     2.9804102095    -5.9564972713
 Xe     4.0281702063     3.0903760894    -2.1492322160
 Xe     2.0284031422    -0.6216805409    -3.4418624325
