          16
Energy: -62.21057261200282 Kcal/mole
 H     -2.0312747685    -4.2225442150    -1.4839091783
 F     -2.7479385615    -4.2370761868    -2.0558102445
 H      2.8157184133    -4.1653152128    -1.3463674628
 F      3.2003016465    -4.3287353124    -0.5301085530
 H      0.8013259167    -2.8866798562     1.6001437251
 F     -0.1054896894    -3.0022155436     1.5278529134
 H      2.7847084101    -3.3655141415     0.7570136589
 F      2.4413548188    -2.8386228602     1.4243837878
 H     -2.2570313063    -4.6136992722    -3.5993572066
 F     -1.8067425376    -4.8497489707    -4.3625148343
 H      1.5007339018    -4.4864264989    -3.2048983130
 F      1.9871869535    -3.8513394425    -2.7566608097
 H     -0.5036672803    -3.8106343100     0.1446646642
 F     -0.6169229811    -4.2736467455    -0.6387136804
 H     -0.2636841907    -5.3853542398    -4.1644456679
 F      0.6005519586    -5.6211776180    -3.9685574024
          16
Energy: -62.22860130294819 Kcal/mole
 H     -1.9968444439    -4.1724242980    -1.4869534290
 F     -2.6982501541    -4.1416960498    -2.0768473215
 H      2.8443528274    -4.2130284658    -1.3295785089
 F      3.2146950713    -4.3649969472    -0.5045686889
 H      0.7976648070    -2.8752410763     1.5790692176
 F     -0.1110767012    -2.9863497180     1.5267935922
 H      2.7860655771    -3.4216414139     0.7700581017
 F      2.4395196825    -2.8994253983     1.4394498973
 H     -2.2045446190    -4.6127968463    -3.5820002050
 F     -1.7881573433    -4.8810222245    -4.3537292916
 H      1.5819908595    -4.4982895225    -3.1774791972
 F      2.0676137359    -3.8575867647    -2.7363903195
 H     -0.4905701043    -3.8247602728     0.1772257926
 F     -0.6067807877    -4.2727149542    -0.6144311283
 H     -0.2199116356    -5.4137523984    -4.1939769333
 F      0.6463091377    -5.6259653490    -3.9806315900
          16
Energy: -62.2474665139258 Kcal/mole
 H     -2.0187287843    -4.1935006335    -1.4825422233
 F     -2.7240911576    -4.1916522092    -2.0685025511
 H      2.7060811980    -4.2612491684    -1.2673070951
 F      3.0507837745    -4.4181316501    -0.4321681721
 H      0.7644548348    -2.8113408491     1.5880780528
 F     -0.1438202718    -2.9041562186     1.5025757840
 H      2.7261479064    -3.3913591297     0.8212894186
 F      2.4113394309    -2.8177457297     1.4637474259
 H     -2.3195329653    -4.7771665497    -3.5543677108
 F     -1.9139454379    -5.1135617777    -4.3048515602
 H      1.5122612795    -4.5557979706    -3.1424142532
 F      1.9886901205    -3.9073571818    -2.7026084974
 H     -0.4984585733    -3.7929828688     0.1904360503
 F     -0.6081390490    -4.2615785148    -0.5901261277
 H     -0.3221485309    -5.5227097914    -4.1248557678
 F      0.5507546052    -5.6842160994    -3.8949757392
          16
Energy: -62.21543211135615 Kcal/mole
 H     -2.0091846872    -4.1758645166    -1.4362397860
 F     -2.7179512309    -4.1880377028    -2.0179534614
 H      2.7138140739    -4.2585170551    -1.2318299848
 F      3.0466793103    -4.4800383439    -0.4065918052
 H      0.7624001811    -2.7768505099     1.6029142408
 F     -0.1461447008    -2.7806676303     1.4787344229
 H      2.7145878937    -3.4967847453     0.9010440432
 F      2.3945833965    -2.9507896963     1.5646520060
 H     -2.2820710998    -4.7803626528    -3.5023881992
 F     -1.9010820218    -5.1229310401    -4.2629033026
 H      1.5486837229    -4.5195223701    -3.1282899683
 F      2.0363731196    -3.8700535988    -2.7025689713
 H     -0.4851465475    -3.7139515320     0.1902074875
 F     -0.5844603024    -4.2269780145    -0.5633372069
 H     -0.2972196945    -5.5414192025    -4.0518972253
 F      0.5785514758    -5.6934704740    -3.8265213880
          16
Energy: -62.21024440736109 Kcal/mole
 H     -2.0391243122    -4.2730605905    -1.4294176238
 F     -2.7148230315    -4.2722484395    -2.0493527664
 H      2.6994875792    -4.3001118142    -1.2337498016
 F      3.0854626872    -4.4741831357    -0.4203548231
 H      0.7937015375    -2.8185776351     1.6018009160
 F     -0.1183521776    -2.8142786852     1.5067822878
 H      2.7603853334    -3.4969030785     0.8794890513
 F      2.4352194210    -2.9502537208     1.5400423111
 H     -2.2497539922    -4.7314957291    -3.5855826001
 F     -1.8669638886    -5.0339937914    -4.3620204011
 H      1.4551518896    -4.5062855342    -3.0822796847
 F      1.8968926266    -3.8580893951    -2.6073103314
 H     -0.5451409834    -3.7678449038     0.2380915890
 F     -0.6767991648    -4.3180510033    -0.4835928097
 H     -0.2994460599    -5.4788355834    -4.1376214911
 F      0.5628358639    -5.6442574584    -3.8730567783
          16
Energy: -62.22056271092126 Kcal/mole
 H     -2.0281709211    -4.2398349219    -1.4668025445
 F     -2.7118185727    -4.3340903481    -2.0706492163
 H      2.6990390313    -4.3059871842    -1.2371824546
 F      3.0182519179    -4.4903235871    -0.3975323944
 H      0.7926504579    -2.7502136619     1.6103453074
 F     -0.1176968008    -2.7680221621     1.5015348022
 H      2.7138965419    -3.4946782531     0.8709921571
 F      2.4329063476    -2.9314867570     1.5378870885
 H     -2.2579422027    -4.7843377202    -3.6013455237
 F     -1.8496810700    -5.0684587709    -4.3717266475
 H      1.5314125500    -4.5485707627    -3.1477410958
 F      2.0131228264    -3.9200545082    -2.6853435100
 H     -0.5069139576    -3.6672288890     0.2082855660
 F     -0.6270956982    -4.1682876020    -0.5502561371
 H     -0.2871532361    -5.4953315297    -4.1530084363
 F      0.5765218954    -5.6707941510    -3.8996961079
          16
Energy: -62.214292053935495 Kcal/mole
 H     -2.0236613121    -4.2829675768    -1.3864613748
 F     -2.7124382472    -4.3805409533    -1.9839182936
 H      2.7113101358    -4.3335902461    -1.2376849349
 F      3.1136241971    -4.5048570560    -0.4316451865
 H      0.8623721606    -2.7070351087     1.5908596607
 F     -0.0493368111    -2.7069301111     1.4924943216
 H      2.7938311732    -3.4699060970     0.8400529371
 F      2.4927287389    -2.8959438781     1.4887390672
 H     -2.2801448259    -4.8822928887    -3.5058022055
 F     -1.8957805221    -5.1807259541    -4.2830349810
 H      1.4727108436    -4.5739492344    -3.1242850922
 F      1.9189674939    -3.9384304007    -2.6365763531
 H     -0.4663504570    -3.6779848293     0.2271509407
 F     -0.6092422939    -4.2110277213    -0.5051988379
 H     -0.3076093664    -5.5539620050    -4.1402467710
 F      0.5779005918    -5.6973633136    -3.9499912094
          16
Energy: -62.183634475497215 Kcal/mole
 H     -1.9689882180    -4.1833025659    -1.4050772405
 F     -2.6942040075    -4.2234242895    -1.9648462161
 H      2.6547522256    -4.3610693442    -1.2059250606
 F      3.0293751572    -4.5560602760    -0.3919685534
 H      0.8712846768    -2.6871383629     1.5389122370
 F     -0.0423542335    -2.6896100567     1.4605105004
 H      2.7903166232    -3.4936251539     0.8477363726
 F      2.4985626916    -2.8759124111     1.4594549441
 H     -2.2599428139    -4.7336837136    -3.4846877995
 F     -1.8498702894    -5.0040143450    -4.2590590763
 H      1.4739800394    -4.5796273782    -3.0763252241
 F      1.9572016975    -3.9306937620    -2.6447339929
 H     -0.4487446329    -3.6059763047     0.1657661738
 F     -0.5638148034    -4.1476596815    -0.5651421482
 H     -0.3170595243    -5.4915525907    -4.0095544254
 F      0.5228296526    -5.7456171781    -3.7432343998
          16
Energy: -62.214135572950156 Kcal/mole
 H     -1.9480988226    -4.1595385700    -1.3743873197
 F     -2.6526763443    -4.1795699191    -1.9609521167
 H      2.7031303916    -4.3469456821    -1.2373597601
 F      3.0327568432    -4.5621072342    -0.4091442634
 H      0.8670186064    -2.6459976993     1.4918908019
 F     -0.0478174380    -2.6881194121     1.4450957909
 H      2.7954085082    -3.4188258458     0.7624195650
 F      2.5226707833    -2.7606980082     1.3398023521
 H     -2.2375917647    -4.6896263270    -3.4809517081
 F     -1.8493683464    -4.9711110184    -4.2625769035
 H      1.5264163329    -4.6208072682    -3.0993641094
 F      2.0377664936    -3.9735890516    -2.6987163922
 H     -0.4266987700    -3.6601113916     0.2041003273
 F     -0.5317280668    -4.2214118189    -0.5133950923
 H     -0.3212869517    -5.5275592274    -4.0138767026
 F      0.5252215337    -5.7676609714    -3.7556838743
          16
Energy: -62.24155088190561 Kcal/mole
 H     -1.9468836868    -4.2420756382    -1.3674673802
 F     -2.6655948152    -4.2402732410    -1.9369759976
 H      2.7221221434    -4.3694973631    -1.2866153557
 F      3.0175457259    -4.5524569267    -0.4380049003
 H      0.8741247938    -2.6733388237     1.5318654401
 F     -0.0404477193    -2.7138929890     1.4789364493
 H      2.7652734785    -3.4180751795     0.7385613503
 F      2.5099430754    -2.7855501715     1.3514296065
 H     -2.2137647659    -4.5658147884    -3.4969151988
 F     -1.8010418645    -4.7528937791    -4.2941292591
 H      1.6062868115    -4.6372529331    -3.2041324467
 F      2.1474156001    -4.0309689701    -2.7792931944
 H     -0.4163924311    -3.6942673492     0.2226815300
 F     -0.5306887324    -4.2359029372    -0.5083836144
 H     -0.2828235419    -5.3633411405    -4.1214416827
 F      0.5474151605    -5.6805183999    -3.8956291868
          16
Energy: -62.22683504491155 Kcal/mole
 H     -1.9325757473    -4.2910999398    -1.3628587767
 F     -2.6560388874    -4.2693322564    -1.9259007403
 H      2.6883403871    -4.3503503110    -1.2657212742
 F      3.0272812873    -4.5368126643    -0.4343129167
 H      0.8914921799    -2.7155790950     1.5719732464
 F     -0.0225887870    -2.7767642388     1.5319561982
 H      2.7767899626    -3.4275991065     0.7580617323
 F      2.5075541315    -2.8022446195     1.3723359649
 H     -2.2388451453    -4.6105624045    -3.5075272462
 F     -1.8524943008    -4.8499631804    -4.3039626130
 H      1.5267127031    -4.5708139611    -3.1887930953
 F      2.0232301368    -3.9540677099    -2.7262095898
 H     -0.4311980661    -3.7508328367     0.2686319971
 F     -0.5257380881    -4.2803865825    -0.4740146313
 H     -0.3118465236    -5.4088241035    -4.1618284739
 F      0.5484423986    -5.6567044401    -3.9634669121
          16
Energy: -62.2295044043 Kcal/mole
 H     -1.9630791664    -4.2734623314    -1.3361634474
 F     -2.6610149547    -4.2529303178    -1.9305985336
 H      2.6992585209    -4.3739248550    -1.2448048138
 F      3.0722265472    -4.5405727536    -0.4238222748
 H      0.8695709283    -2.6886033049     1.5493568452
 F     -0.0446947551    -2.7499951024     1.5141672535
 H      2.8099933302    -3.4321991761     0.7593460223
 F      2.5151557941    -2.8078427791     1.3627852626
 H     -2.2563407405    -4.7361554268    -3.4456794169
 F     -1.8630396276    -5.0277159798    -4.2210475093
 H      1.5025069184    -4.5898897105    -3.1332798544
 F      1.9833553601    -3.9560289635    -2.6773255480
 H     -0.4419568670    -3.7527500726     0.2906993622
 F     -0.5763089247    -4.3230602902    -0.4146975334
 H     -0.2922071101    -5.5091524253    -4.1065200933
 F      0.5749048173    -5.7161070101    -3.8916347630
          16
Energy: -62.21818718490387 Kcal/mole
 H     -1.9396927194    -4.2318792259    -1.3495856055
 F     -2.6427727616    -4.1982876826    -1.9373262477
 H      2.7118380480    -4.3691681261    -1.2415992787
 F      3.0457308925    -4.5610340965    -0.4093781435
 H      0.9042296200    -2.7589737105     1.6031568344
 F     -0.0097657830    -2.7988603856     1.5406231916
 H      2.8222572641    -3.4601738506     0.8274304353
 F      2.5476216237    -2.8517738799     1.4561702390
 H     -2.2392471986    -4.7940382426    -3.4244552447
 F     -1.8586180957    -5.1535473736    -4.1772923258
 H      1.5412142769    -4.5930305349    -3.1317473949
 F      2.0467210878    -3.9599960113    -2.7020740817
 H     -0.4182971418    -3.7476953945     0.2829505005
 F     -0.5250740214    -4.2570741978    -0.4720468059
 H     -0.2866925589    -5.5639621819    -4.0362317648
 F      0.5966639067    -5.7300787119    -3.8546397688
          16
Energy: -62.234840970557784 Kcal/mole
 H     -1.9624418431    -4.2281996752    -1.3302473916
 F     -2.6868014116    -4.2231423788    -1.8925343639
 H      2.6734251133    -4.3536168568    -1.2622645726
 F      2.9927026496    -4.5510463548    -0.4256210116
 H      0.9156809836    -2.7535510136     1.5827200206
 F      0.0021870056    -2.8018486275     1.5188052911
 H      2.8034986028    -3.4669280872     0.7966875408
 F      2.5513278160    -2.8606547017     1.4367902484
 H     -2.2304028023    -4.7619393220    -3.3893709246
 F     -1.8371724123    -5.0669291334    -4.1595917211
 H      1.5876886233    -4.5823477522    -3.1600496955
 F      2.0516544055    -3.9261961280    -2.7183599865
 H     -0.3953629715    -3.7527121250     0.2588105848
 F     -0.5181531600    -4.2624391630    -0.4935124285
 H     -0.2532193244    -5.5331734388    -4.0448057019
 F      0.6292271671    -5.7215346834    -3.8814128282
          16
Energy: -62.23772794324151 Kcal/mole
 H     -1.9631314768    -4.2876031156    -1.3467776943
 F     -2.6658513980    -4.3158370495    -1.9352303750
 H      2.6732811131    -4.3559925714    -1.2041809390
 F      3.0384665836    -4.5502798304    -0.3857794281
 H      0.9102489124    -2.7969364815     1.6492941599
 F     -0.0020049526    -2.8578334663     1.5787715188
 H      2.7888658554    -3.4932884936     0.8599258316
 F      2.5416231168    -2.8819456616     1.4971227947
 H     -2.2170911733    -4.7724997187    -3.4665315099
 F     -1.8021625790    -5.0481457492    -4.2364292482
 H      1.5288914720    -4.6026657014    -3.1075181875
 F      1.9910663006    -3.9577060328    -2.6478330196
 H     -0.4291342354    -3.7752384324     0.2888594377
 F     -0.5597611685    -4.2765659681    -0.4677754189
 H     -0.2498601354    -5.5465288970    -4.0984015785
 F      0.6242583074    -5.7413357120    -3.9012816843
          16
Energy: -62.228804440822046 Kcal/mole
 H     -2.0115302384    -4.3388998026    -1.3098857609
 F     -2.6968495142    -4.3704049727    -1.9183542600
 H      2.7483698355    -4.3511235306    -1.2089736991
 F      3.0985699708    -4.4890034020    -0.3727691749
 H      0.8886902372    -2.7666712476     1.6497336535
 F     -0.0233129206    -2.8391328498     1.5873753641
 H      2.8364363798    -3.4208162060     0.8776453173
 F      2.5362697423    -2.8244310180     1.5062260180
 H     -2.2008106663    -4.8117131049    -3.4223813051
 F     -1.7841145907    -5.0637807485    -4.1993724786
 H      1.5746018741    -4.6641884159    -3.0947337707
 F      2.0228190073    -4.0017775758    -2.6461779990
 H     -0.4605217874    -3.8122445264     0.3438935288
 F     -0.6078239727    -4.3345835518    -0.3952634294
 H     -0.2398378648    -5.5639838755    -4.0240637290
 F      0.6321021939    -5.7848012035    -3.8456001709
          16
Energy: -62.20295287919514 Kcal/mole
 H     -1.9837888812    -4.3007418121    -1.3133835817
 F     -2.6917305154    -4.3194436012    -1.8959279025
 H      2.7863421057    -4.3464195794    -1.2000152054
 F      3.1806356141    -4.5100042426    -0.3884354575
 H      0.8667186371    -2.7926868483     1.6342370546
 F     -0.0451311086    -2.8769743930     1.5861262334
 H      2.8454380726    -3.4081705096     0.8175609625
 F      2.5136014692    -2.8310207091     1.4481730274
 H     -2.2225755259    -4.8000936189    -3.4089015064
 F     -1.8076340483    -5.0757290834    -4.1787960842
 H      1.6046329512    -4.6851384647    -3.0868709893
 F      2.0577851507    -4.0281306236    -2.6353371801
 H     -0.4629884798    -3.7815265182     0.3031004855
 F     -0.5884961111    -4.2811737856    -0.4555097192
 H     -0.2376136036    -5.5763994755    -4.0481168880
 F      0.6319842020    -5.7841425846    -3.8443242063
          16
Energy: -62.18698931523116 Kcal/mole
 H     -1.9466744226    -4.3007774960    -1.3190637849
 F     -2.6571492188    -4.3291143815    -1.8981247358
 H      2.7811029585    -4.3887623299    -1.1999796328
 F      3.1236744371    -4.5296253554    -0.3611164794
 H      0.8574922563    -2.7846633610     1.6448010621
 F     -0.0522634406    -2.8870579238     1.5923708656
 H      2.7873291525    -3.4146561490     0.8352037818
 F      2.5003967330    -2.7739339362     1.4251477051
 H     -2.2150441271    -4.8310002576    -3.3981874344
 F     -1.8201405567    -5.1290105866    -4.1702819972
 H      1.5710852236    -4.6640022788    -3.1124231518
 F      2.0528557031    -4.0402005176    -2.6437467519
 H     -0.4494389797    -3.8127069134     0.3091919669
 F     -0.5607942700    -4.3292917439    -0.4402272163
 H     -0.2504370436    -5.6092118928    -3.9957034111
 F      0.6256280878    -5.7994305811    -3.8027896063
          16
Energy: -62.24183750234354 Kcal/mole
 H     -2.0032793143    -4.3291837378    -1.3070284298
 F     -2.6819780360    -4.3177841112    -1.9235729079
 H      2.7808222313    -4.3425869100    -1.1904256767
 F      3.1557427652    -4.4781594640    -0.3646268659
 H      0.8511154177    -2.8403708177     1.6769233586
 F     -0.0586241792    -2.9416643589     1.6221284284
 H      2.8301774839    -3.4311656649     0.8741508488
 F      2.4927415236    -2.8452304565     1.4935908412
 H     -2.1687251478    -4.7994536597    -3.4058510283
 F     -1.7663171730    -5.1039848243    -4.1714995061
 H      1.5550521936    -4.6902470640    -3.0551227203
 F      1.9989072421    -4.0212223382    -2.6120791421
 H     -0.4496857269    -3.8481014274     0.3255976119
 F     -0.5939607431    -4.3610343308    -0.4207089983
 H     -0.2175145086    -5.6501527704    -4.0023028807
 F      0.6505535591    -5.8624633794    -3.7967036707
          16
Energy: -62.22577824479659 Kcal/mole
 H     -2.0010168548    -4.2421539144    -1.3188765878
 F     -2.7005691132    -4.2966998988    -1.9092496676
 H      2.8131041350    -4.2599291511    -1.2608059677
 F      3.2143815453    -4.3828236170    -0.4454763471
 H      0.8513342809    -2.8862730825     1.6848797112
 F     -0.0589648876    -2.9968840289     1.6817744855
 H      2.8266457131    -3.3689096865     0.7962564246
 F      2.4924828782    -2.8292061361     1.4580300093
 H     -2.2214469982    -4.9117744845    -3.3588274823
 F     -1.8056333787    -5.2378421317    -4.1082725591
 H      1.5382237447    -4.6598974303    -3.0768986200
 F      1.9900345939    -3.9796599695    -2.6597260496
 H     -0.4444436802    -3.7819921529     0.3312931513
 F     -0.5565647399    -4.2141313007    -0.4696897605
 H     -0.2238390491    -5.6538512876    -3.9650159728
 F      0.6546938083    -5.8449042506    -3.7845505083
          16
Energy: -62.245503361957006 Kcal/mole
 H     -1.9689710194    -4.2519558878    -1.3497922866
 F     -2.6774140668    -4.2898664356    -1.9307916316
 H      2.7785500717    -4.2987568431    -1.2504461582
 F      3.1509930402    -4.4286287228    -0.4226125215
 H      0.8641188774    -2.8521827654     1.6863116832
 F     -0.0440294187    -2.9773322811     1.6641019791
 H      2.8183961284    -3.3505072812     0.8022378307
 F      2.4972481310    -2.7599626406     1.4259444855
 H     -2.2408566633    -4.9271968545    -3.3886370515
 F     -1.8253237860    -5.2703728582    -4.1305613457
 H      1.5537766011    -4.6857927113    -3.0709683003
 F      2.0028473892    -3.9952732360    -2.6679704323
 H     -0.4396183683    -3.7810979747     0.3049519829
 F     -0.5394632180    -4.2216014946    -0.4930935390
 H     -0.2336533687    -5.7158827301    -3.9346022157
 F      0.6352478271    -5.9041814559    -3.7100063524
          16
Energy: -62.24343539392176 Kcal/mole
 H     -1.9581971130    -4.1632120174    -1.3905280723
 F     -2.6730253765    -4.2217865760    -1.9619111091
 H      2.7568693405    -4.2723369180    -1.2511682292
 F      3.1633130887    -4.3690020248    -0.4348666080
 H      0.8629529020    -2.8490500590     1.7137385566
 F     -0.0476387281    -2.9461997677     1.6660539951
 H      2.8116030135    -3.3700496610     0.8490965086
 F      2.4933272880    -2.8126012424     1.5039559005
 H     -2.2370970994    -4.8701675187    -3.4170489870
 F     -1.8257728597    -5.2530516527    -4.1416875933
 H      1.5096306237    -4.7128791132    -3.0684370425
 F      1.9503835990    -4.0173577898    -2.6648581735
 H     -0.4129718737    -3.6934238037     0.2607734471
 F     -0.5207902761    -4.1224228317    -0.5424849335
 H     -0.2543508567    -5.7380207388    -3.9389361619
 F      0.6166195902    -5.9287808416    -3.7246698235
          16
Energy: -62.233216460798346 Kcal/mole
 H     -1.9836938992    -4.3234967777    -1.3182486924
 F     -2.7015575133    -4.4960874538    -1.8620991223
 H      2.8134751889    -4.2567780112    -1.2632721406
 F      3.1992663385    -4.3616357963    -0.4380091318
 H      0.8497483451    -2.7909947942     1.6715267164
 F     -0.0640497584    -2.8559678994     1.6310233640
 H      2.8130095237    -3.3512144923     0.8105170652
 F      2.4900614128    -2.8100093040     1.4766180049
 H     -2.2503021557    -4.9960734085    -3.3771020825
 F     -1.8442099702    -5.2727615786    -4.1513254310
 H      1.5456036614    -4.6977810577    -3.0764794674
 F      2.0719846256    -4.0340094043    -2.7254534390
 H     -0.4243686833    -3.6030899110     0.2230087219
 F     -0.5044393816    -4.0583941509    -0.5689355516
 H     -0.2890423106    -5.7298906845    -3.8705198602
 F      0.5755121306    -5.9027993958    -3.6184540041
          16
Energy: -62.23505318604931 Kcal/mole
 H     -1.9480157539    -4.3205611310    -1.3206554426
 F     -2.6764498189    -4.4394633058    -1.8648383951
 H      2.8144278221    -4.2662246094    -1.2779075441
 F      3.1936822584    -4.3638545536    -0.4487371958
 H      0.8516454248    -2.6843397586     1.5871871495
 F     -0.0624257525    -2.7394085756     1.5389138830
 H      2.8099278211    -3.3428378829     0.7872284169
 F      2.5000117696    -2.7629558982     1.4264294219
 H     -2.2529409282    -5.0321762491    -3.3579882980
 F     -1.8351193539    -5.3284959392    -4.1185859402
 H      1.5431473236    -4.6702998449    -3.0832371933
 F      2.0409695029    -3.9941851007    -2.7145490725
 H     -0.4123586164    -3.6604543456     0.2528699600
 F     -0.5028530937    -4.1670576866    -0.5061114656
 H     -0.2534525335    -5.7404117677    -3.8715363011
 F      0.6149376658    -5.9012159581    -3.6246973372
          16
Energy: -62.22915324178119 Kcal/mole
 H     -1.9774237862    -4.3791909006    -1.2970207922
 F     -2.6993577095    -4.5535957363    -1.8348714811
 H      2.7323082828    -4.2169314593    -1.2711930267
 F      3.1308957641    -4.3611773035    -0.4580447277
 H      0.8533957409    -2.6933286821     1.6055385544
 F     -0.0607335805    -2.7104708932     1.5350919195
 H      2.7876268746    -3.3591006361     0.7982266895
 F      2.4818251454    -2.8094139172     1.4654738802
 H     -2.2513679370    -5.1197134199    -3.3110108698
 F     -1.8502212453    -5.4090558940    -4.0831839492
 H      1.4859853703    -4.6410530783    -3.0421183304
 F      1.9471606097    -3.9242405009    -2.7039081479
 H     -0.4393919948    -3.6343995614     0.2312892383
 F     -0.5285251213    -4.1398280835    -0.5286359519
 H     -0.2645210492    -5.7938027606    -3.8428933008
 F      0.5997144497    -5.9242481195    -3.5654586044
          16
Energy: -62.2348321507675 Kcal/mole
 H     -1.9888118923    -4.4214656671    -1.2758407024
 F     -2.7031700810    -4.5430066472    -1.8378097126
 H      2.7226782463    -4.2004693331    -1.2863115942
 F      3.0961611213    -4.3299578623    -0.4588865143
 H      0.8422923613    -2.6864406120     1.6340640849
 F     -0.0700395246    -2.7597444185     1.5777961379
 H      2.7668013994    -3.2941721910     0.7917190781
 F      2.4743499980    -2.7085787414     1.4339351552
 H     -2.2511314150    -5.1133297302    -3.2989680670
 F     -1.8395673865    -5.3939221583    -4.0688849066
 H      1.5530708819    -4.6467137390    -3.1004423898
 F      1.9998043603    -3.9375251099    -2.7284616274
 H     -0.4583995423    -3.7108147315     0.2933149455
 F     -0.5653389073    -4.2414445970    -0.4468775416
 H     -0.2331442979    -5.7371444893    -3.9138678457
 F      0.6524498005    -5.8830147808    -3.7258945735
          16
Energy: -62.25823947869756 Kcal/mole
 H     -1.9963041035    -4.4416948183    -1.2761802240
 F     -2.7000057375    -4.5854580465    -1.8462899894
 H      2.7178822243    -4.2115213959    -1.2725094812
 F      3.1116606703    -4.3461025523    -0.4553709080
 H      0.8533340667    -2.7443995970     1.6492819145
 F     -0.0589734056    -2.8314296172     1.6175037528
 H      2.7977477713    -3.3303252826     0.8112839387
 F      2.4908347418    -2.7699372519     1.4690518669
 H     -2.2347187604    -5.1112684145    -3.3358837457
 F     -1.8327645576    -5.3950949581    -4.1096823707
 H      1.5486939126    -4.6445172318    -3.0993378422
 F      2.0000365484    -3.9376416295    -2.7285202211
 H     -0.4592805453    -3.7175519707     0.3033235307
 F     -0.5678274461    -4.2077706529    -0.4640044396
 H     -0.2292767806    -5.7367270801    -3.9309090532
 F      0.6522446376    -5.8830369234    -3.7249905768
          16
Energy: -62.248448224947495 Kcal/mole
 H     -1.9815546990    -4.4045106680    -1.2860418470
 F     -2.6927499276    -4.5459127578    -1.8473757903
 H      2.7453491507    -4.1790242342    -1.3098077448
 F      3.1170809995    -4.3181202462    -0.4831538076
 H      0.8775851873    -2.7709649348     1.6891461151
 F     -0.0350177556    -2.8429796502     1.6356788426
 H      2.8256571465    -3.3200356726     0.8056716512
 F      2.5266898224    -2.7727947772     1.4780070894
 H     -2.2488547277    -5.0786945664    -3.3489355864
 F     -1.8197313257    -5.3601374159    -4.1088908668
 H      1.5404904853    -4.6333260881    -3.1121550830
 F      1.9891523091    -3.9161511899    -2.7582458669
 H     -0.4544521334    -3.6979618465     0.3100350791
 F     -0.5574476449    -4.1831810665    -0.4612257284
 H     -0.2330294267    -5.7606536607    -3.9049579530
 F      0.6384116155    -5.9068507171    -3.6597928440
          16
Energy: -62.24348212535047 Kcal/mole
 H     -1.9652433183    -4.4165067164    -1.2959497400
 F     -2.6860608345    -4.5869479655    -1.8365613279
 H      2.7407597480    -4.1617839973    -1.2973706361
 F      3.1343740010    -4.2944750792    -0.4798439413
 H      0.8998371329    -2.7880465914     1.7031096332
 F     -0.0095618908    -2.8964013161     1.6568314589
 H      2.8399172131    -3.2945361128     0.8183713750
 F      2.5258168995    -2.7422879412     1.4796216680
 H     -2.2514497372    -5.1533681382    -3.3381421342
 F     -1.8427560266    -5.4470249119    -4.1047086024
 H      1.5187658449    -4.6047407545    -3.0991746541
 F      1.9761038103    -3.8958305802    -2.7397621471
 H     -0.3942063069    -3.7193269901     0.2962495393
 F     -0.5209623891    -4.1962383169    -0.4766524480
 H     -0.2351646734    -5.7496689195    -3.9284277616
 F      0.6478476657    -5.8555320234    -3.7048853445
          16
Energy: -62.25296586838111 Kcal/mole
 H     -1.9407949096    -4.3834825281    -1.3024136813
 F     -2.6669804629    -4.5538601472    -1.8358131650
 H      2.7482264642    -4.1711660026    -1.2819484229
 F      3.1297895777    -4.3158460197    -0.4607503450
 H      0.8763361191    -2.7409500798     1.6755022349
 F     -0.0288738098    -2.8853590936     1.6504020081
 H      2.8143269619    -3.2555200272     0.7764573154
 F      2.5090802792    -2.6723419204     1.4149060278
 H     -2.2344260846    -5.1042456079    -3.3301968110
 F     -1.8220867169    -5.3827033346    -4.1004737354
 H      1.5244087198    -4.6074586228    -3.0730049521
 F      1.9756789608    -3.8962620474    -2.7104534375
 H     -0.4076025339    -3.7263716206     0.3026097239
 F     -0.5202517502    -4.1958646155    -0.4769898411
 H     -0.2373484611    -5.7498629093    -3.8691040200
 F      0.6445930432    -5.8693917136    -3.6482396999
          16
Energy: -62.25740467525726 Kcal/mole
 H     -1.9518778257    -4.3622875408    -1.2773469227
 F     -2.6651306336    -4.5055501083    -1.8355899422
 H      2.7659537830    -4.0897202054    -1.3009324571
 F      3.1809976385    -4.1936069999    -0.4898620951
 H      0.8759167874    -2.7827446732     1.6933174341
 F     -0.0301318924    -2.9213986679     1.6661170751
 H      2.8326133467    -3.1994564375     0.7963589546
 F      2.5043971058    -2.6901690642     1.4846826216
 H     -2.2413145344    -5.0613089580    -3.3393420156
 F     -1.8479791239    -5.3803089647    -4.1038125845
 H      1.5111319326    -4.5989803060    -3.0614711374
 F      1.9526581509    -3.8753803751    -2.7116901508
 H     -0.4102062821    -3.7272183440     0.3032039822
 F     -0.5093767684    -4.1857023322    -0.4847342433
 H     -0.2659892724    -5.7269760864    -3.8778038709
 F      0.6132956466    -5.8548471742    -3.6510969760
          16
Energy: -62.25123251784596 Kcal/mole
 H     -1.9417830907    -4.3548884093    -1.2925081058
 F     -2.6656661360    -4.5059426152    -1.8347856765
 H      2.7670776191    -4.0712778569    -1.3056910533
 F      3.1918059884    -4.1854322625    -0.5010398345
 H      0.8458706154    -2.7221688478     1.6766380501
 F     -0.0638758990    -2.8342959924     1.6506037827
 H      2.8221165048    -3.2289142560     0.7975779742
 F      2.4944289358    -2.7042673319     1.4745236605
 H     -2.2534669997    -5.0555879058    -3.3416210091
 F     -1.8601852914    -5.3737311077    -4.1064761594
 H      1.4838245783    -4.5854841237    -3.0534270308
 F      1.9541067430    -3.8760963164    -2.7121168721
 H     -0.4223714198    -3.7022907777     0.3116758712
 F     -0.5071274838    -4.1884412065    -0.4612168576
 H     -0.2705951849    -5.7205143808    -3.8566274153
 F      0.5974811042    -5.8539015593    -3.5929222448
          16
Energy: -62.261667966168034 Kcal/mole
 H     -1.9316821642    -4.3722175465    -1.2896612067
 F     -2.6602401405    -4.4965139614    -1.8324711885
 H      2.7955854561    -4.0978628990    -1.2972262162