          5
Energy: -0.016909223757123167 Kcal/mole
 Ar    -3.7070990875    -7.9567382504     6.2455373488
 Ar    -7.2025377371     0.3243571892    -2.5028058916
 Ar     2.9355273969    -2.4933117651    -5.5183021197
 Ar    -7.3007569151    -1.6788178915     6.4707663325
 Ar     8.0193300697     2.9700992957    -0.6567225312
          5
Energy: -0.2782438870456646 Kcal/mole
 Ar     5.3891431233    -7.9562662618     2.2496779414
 Ar    -6.1504108256     0.6871168211    -2.7325296464
 Ar     0.7708164688    -0.3442880189     0.4742552318
 Ar    -5.2986488027    -6.1519165169    -1.6740114671
 Ar    -4.9311417872    -1.7954904190    -5.6646620214
          5
Energy: -0.19385385869943444 Kcal/mole
 Ar    -5.4591096602     4.3017086465     1.8199184520
 Ar     8.2080431189    -0.4645240019    -5.8968739617
 Ar    -7.6181799670     7.3849510020    -5.4017617141
 Ar    -4.6647741296    -7.0089415671     4.9293276765
 Ar    -6.9325802967    -3.4976497204     4.2457923100
          5
Energy: -0.4042259593397768 Kcal/mole
 Ar    -2.6113072479     2.0878903770     7.1389859229
 Ar    -4.0251676313    -2.6714755728    -2.6866701446
 Ar    -1.4185634611     4.9262480810     1.3490458523
 Ar    -0.4689152229     5.7456933622     5.2537396010
 Ar    -2.2941266599    -3.0839818264     4.8617954168
          5
Energy: -0.26044552521733894 Kcal/mole
 Ar    -1.7288664580    -2.3429726664     2.0635929366
 Ar     7.3505968319    -5.6133169446     6.9216611429
 Ar     4.7812548648     0.5041113939    -0.6808247089
 Ar    -0.8085926891     5.2721104070    -3.9628663873
 Ar     4.1271934607     3.1370657566     2.0861101833
          5
Energy: -0.5502376071567701 Kcal/mole
 Ar    -6.8304095878    -0.0267590521    -0.6122541828
 Ar    -3.6271982391    -1.6446544211     0.6715195910
 Ar    -7.4748554291     0.9305821588     7.7616979938
 Ar    -0.7763882602    -4.5433402791     1.0161970932
 Ar    -7.0850172020    -2.3643867502    -3.0819091843
          5
Energy: -1.9127662189430992 Kcal/mole
 Ar    -3.7588726754    -5.2533290540     3.4241055525
 Ar    -4.0155776911    -3.9013011978    -0.2664229883
 Ar    -7.1793722618    -4.8676558263     1.1953415591
 Ar    -4.5364936195    -1.2905797083     2.6186808188
 Ar    -6.9731710351    -3.5289043631     4.6954794203
          5
Energy: -1.8898246325301484 Kcal/mole
 Ar    -5.1260852412     1.4717551458     1.0125946677
 Ar    -6.0166528638     4.2760673032    -1.7250067121
 Ar    -3.9882915445     1.4686271324    -3.4316221910
 Ar    -5.0583736150    -1.6094881081    -1.1298325795
 Ar    -7.9228736338     0.7113046572    -1.8279810486
          5
Energy: -2.1137605127210666 Kcal/mole
 Ar    -2.6271987432     0.4199749364     1.0683464647
 Ar    -1.6554567427    -1.7829125979     4.0464038541
 Ar    -0.7551947869     1.9206843167     4.0946615768
 Ar    -3.6605772735     3.7865622230     2.5235212453
 Ar    -4.3957447667     0.7404923760     4.4639955217
          5
Energy: -2.1290219532805312 Kcal/mole
 Ar    -2.5621826010     0.4301271324     1.1290369524
 Ar    -1.5649600799    -1.7891832942     4.0615206940
 Ar    -0.8009950785     1.9455478928     4.1493789561
 Ar    -3.6056148747     3.8624241685     2.4195331985
 Ar    -4.3957447667     0.7404923760     4.4639955217
