          5
Energy: -2.1288548278179458 Kcal/mole
 Ar     5.2385538279    -7.7388667167     6.5581097539
 Ar     1.7325212426    -6.3667803640     5.9886228599
 Ar     4.4583394154    -4.0799038215     7.3275916919
 Ar     7.7704417467    -5.0228996124     5.7220247275
 Ar     4.5797228563    -5.2724394779     3.6915863894
