          5
Energy: -0.5453388189409889 Kcal/mole
 Ar     2.7459843808    -2.6586285589    -0.7221402038
 Ar     6.2206522912     0.7124390913     1.1302598297
 Ar    -1.2965656063    -2.6116451904    -1.7866772489
 Ar     2.9432032215     0.9698451103     5.3917150844
 Ar     2.7406977385    -3.6383025466     4.3297052849
          5
Energy: -0.7419030195540118 Kcal/mole
 Ar     3.6328352424     1.5680447881    -1.9856461336
 Ar     4.5479602665    -3.2371103160    -3.8558162170
 Ar    -0.7270974539    -4.9696300289    -6.4246877434
 Ar     1.3824712811    -4.9452279891    -3.3976559074
 Ar     5.7261758254     4.1234828260     0.4401232789
          5
Energy: -0.7233035450333943 Kcal/mole
 Ar    -5.6921025214    -2.2579398919     0.8400460624
 Ar    -2.3956398708    -0.3309864266    -4.4336033984
 Ar    -2.8760122362    -0.6873135460    -0.9340955399
 Ar    -6.9992066774    -1.3822526528    -2.2513183449
 Ar     5.2585665005    -4.3909788886     7.1566486896
          5
Energy: -0.4886780881623852 Kcal/mole
 Ar    -6.8160483636    -0.7772749374     3.1819720620
 Ar    -6.2456885822    -3.1738938337    -0.5190623016
 Ar    -1.6096441794     4.5451935574     1.9404343205
 Ar    -1.4028897736     3.9141480565    -2.1995177554
 Ar    -0.4080612179     5.3500179504    -6.4564160887
          5
Energy: -0.7948493499446431 Kcal/mole
 Ar    -1.7063640510    -1.2879969098     1.7810843177
 Ar    -5.2870291923     0.3612236089     1.8457498251
 Ar     4.8251704227     2.3702113103     2.6934568969
 Ar    -2.1138093557     1.7068589061    -1.4466482681
 Ar     1.3404321342     3.4305373942     3.6367019248
          5
Energy: -1.2916258904142697 Kcal/mole
 Ar    -4.1970179740    -1.6063479792     4.2429958324
 Ar     0.3202925085     1.8736092291     3.7569500386
 Ar    -0.5889191704    -1.3952448837     1.7299901784
 Ar    -0.6810659262    -2.3373936041     5.5163378328
 Ar     1.7808315212    -5.2813497282     5.4153662063
          5
Energy: -1.7571293555666145 Kcal/mole
 Ar     7.5134173681    -0.5325656384    -0.2604402615
 Ar     4.2578382912    -4.0119388725     3.0186409450
 Ar     6.4405207910    -0.8900133138     3.4094542202
 Ar     6.2582329391     2.5044188599     1.4796797895
 Ar     3.3307545735    -0.4095091868     1.3978335487
          5
Energy: -1.7243403189608053 Kcal/mole
 Ar     3.6272738830    -5.2944351280     4.4474212402
 Ar     6.5514070572    -2.8264790649     5.0063873606
 Ar     7.1973670800    -5.7193279537     2.2612342305
 Ar     4.7138447112    -5.9759332248    -0.2376717162
 Ar     5.5271382970    -2.5372121052     1.2710066102
          5
Energy: -2.0670722726391597 Kcal/mole
 Ar     5.2325128160    -7.7721900657     6.4591946045
 Ar     1.6375924179    -6.3624897477     6.0771726691
 Ar     4.6582607808    -4.0606139104     7.2849382167
 Ar     7.8346907303    -4.8923580064     5.6709560945
 Ar     4.5819294412    -5.1668347184     3.7420403120
          5
Energy: -2.1288548278179458 Kcal/mole
 Ar     5.2385538279    -7.7388667167     6.5581097539
 Ar     1.7325212426    -6.3667803640     5.9886228599
 Ar     4.4583394154    -4.0799038215     7.3275916919
 Ar     7.7704417467    -5.0228996124     5.7220247275
 Ar     4.5797228563    -5.2724394779     3.6915863894
