          5
Energy: -0.21860836227479377 Kcal/mole
 Ar    -3.4105381112    -2.6964441149    -0.1152374697
 Ar    -1.5816149949    -1.6025112973     7.2117555830
 Ar     0.7025338925    -4.6898237899     4.8163461059
 Ar    -7.2667485660    -0.3863298950    -3.2207751981
 Ar     2.9986975806    -5.5766320822    -5.0856744459
          5
Energy: -0.35798287143695356 Kcal/mole
 Ar     3.9097312169    -2.9241443804     2.4955499805
 Ar     0.1734378507    -0.1673922580    -2.4295300037
 Ar    -3.0321454975     2.0342797075    -4.9303378485
 Ar     5.3647310541     6.1040668709    -5.0465132889
 Ar     7.0195893818     6.1958603919    -1.8085304368
          5
Energy: -0.21187509075705596 Kcal/mole
 Ar     2.7467615818    -2.9672672022    -6.6530137055
 Ar    -5.3774108481    -0.6577381691     5.7016060318
 Ar    -2.3009117057    -6.8713954051    -7.6485922385
 Ar     0.7945524091     8.0561702154    -4.7691711541
 Ar     4.9738789062    -0.2319043858    -7.3240098296
          5
Energy: -0.14937399865606618 Kcal/mole
 Ar     0.7697861122    -1.5517718377     6.4758686938
 Ar    -7.3643042499     1.0232629573    -6.9296298164
 Ar    -1.1219724406    -3.8023502724    -3.5783015094
 Ar    -1.7104600330     0.8232237163    -3.8432928928
 Ar     6.5883514790     2.6186515821    -5.3379241684
          5
Energy: -0.16270756541741815 Kcal/mole
 Ar    -0.7276743980    -3.3837307491    -4.3097837747
 Ar     3.7530887197    -2.4204789755    -2.1713615962
 Ar     0.1115652903    -5.2964727689     4.7469953515
 Ar     5.9148197623    -5.5837910667     7.8941639962
 Ar    -5.9949394345    -4.1616179693    -3.6598278929
          5
Energy: -0.40233421379468015 Kcal/mole
 Ar     0.1762338852    -6.4151975458    -2.4034037705
 Ar     0.7474743977    -2.4203297273     3.3198259776
 Ar     1.1192188080     1.9720028658     2.6143308704
 Ar     5.8515990531     7.4550585871     6.3850053975
 Ar     1.2181180687     5.8277995128     4.6197519383
          5
Energy: -0.48257878624743417 Kcal/mole
 Ar     3.5665745416     7.5883662962    -5.7765244052
 Ar     1.5409654605    -3.9433845662     3.5624821585
 Ar     3.5915765022     1.9817772878    -4.1065163497
 Ar     5.4300270525    -0.0413472947    -0.8372295969
 Ar     7.1194476823     7.4156476637    -4.6086465568
          5
Energy: -1.8452791849907666 Kcal/mole
 Ar     2.4473373306     5.5589013598    -5.3542253522
 Ar     2.3721808910     2.7319211117    -2.8531970567
 Ar     3.2983510925     6.6089537472    -1.0591338863
 Ar     4.7052370726     2.5344492921    -6.4060089019
 Ar     5.7420986121     4.9487132842    -3.7102946856
          5
Energy: -1.953253600516878 Kcal/mole
 Ar     1.6685503948     3.3432980712    -5.1613205967
 Ar     5.8309456414     2.2170298224    -4.6728418824
 Ar     0.8185408302     4.4237349494    -1.6659563217
 Ar     3.3786482123     1.8182396436    -2.0847851310
 Ar     4.0894235371     5.5663106620    -3.4470234437
          5
Energy: -2.1288976004094007 Kcal/mole
 Ar     1.8772542296     3.4218623345    -5.2677079304
 Ar     5.5224614733     2.3391227645    -5.2125091607
 Ar     0.8495553794     4.5894767426    -1.8105448575
 Ar     3.3273377861     1.6962541570    -2.1668425835
 Ar     4.3825329561     5.2655309835    -3.0567492813
