          5
Energy: -2.1288976004094007 Kcal/mole
 Ar     1.8772542296     3.4218623345    -5.2677079304
 Ar     5.5224614733     2.3391227645    -5.2125091607
 Ar     0.8495553794     4.5894767426    -1.8105448575
 Ar     3.3273377861     1.6962541570    -2.1668425835
 Ar     4.3825329561     5.2655309835    -3.0567492813
