          5
Energy: -0.07460030645694146 Kcal/mole
 Ar     0.4993824475    -0.4799719915     2.8973835706
 Ar    -1.5909944411    -1.5080336158    -3.5973936609
 Ar    -4.8420280076     5.3350779227     1.2761608308
 Ar     3.5435675094     3.8777899039    -1.3996474713
 Ar     5.2713962747    -3.1419184879    -1.8099512015
