          32
Energy: -121.63679988576703 Kcal/mole
 H     -2.9255261415     1.3996283174    -0.3475061072
 F     -2.1234299213     1.7665555975    -0.5982949120
 H     -6.5065336759     2.6600117319    -2.0637428178
 F     -6.1472067225     1.8190070668    -1.9967779486
 H     -2.4091611353     5.8406415291    -1.5186204351
 F     -2.6902777153     6.7069123645    -1.6255657858
 H     -2.8376476199     4.8559153593     1.6504801584
 F     -2.1016859873     4.3097545029     1.6814284089
 H     -2.0395940319     2.7138623141     2.2821374388
 F     -2.3660067303     1.9124879683     2.5856879422
 H     -4.9954093139     6.3585656513    -4.3251636249
 F     -5.8201300678     5.9715959100    -4.2203824361
 H     -3.1799107604     6.8731918580    -3.2433926991
 F     -3.4378595386     6.7267251480    -4.1110901872
 H     -8.3437141046     5.6570703455     0.1074724364
 F     -8.1452149970     6.4800992707    -0.2448207549
 H     -6.4803855139     6.8003486220    -0.3433228361
 F     -5.6023060327     7.0569586332    -0.4067004877
 H     -4.5471766370     6.3246695737     0.6746443371
 F     -4.1436622483     5.9374579836     1.4013714679
 H     -3.9850602625     2.0970454154     3.1057014494
 F     -4.9012675856     2.1338166412     3.1157522244
 H     -6.3473659399     5.0089089192    -2.8049294220
 F     -6.5741304698     4.4332911284    -2.1280756660
 H     -1.8479471618     3.3604890196    -1.3224243806
 F     -1.8107222506     4.1903429282    -1.7108130988
 H     -8.0563910667     3.8167765698     1.2102946290
 F     -8.7091434208     4.4079879266     0.9548098040
 H     -5.3334571165     1.3801351522    -0.6336428975
 F     -4.6555131812     1.1679405520    -0.0537683660
 H     -6.1490157848     2.4778351505     1.9482803040
 F     -6.7419382081     2.7119961356     1.2891136840
          32
Energy: -120.61338199599996 Kcal/mole
 H     -2.9766037804     2.0536881533    -2.2942658764
 F     -2.1469674136     2.3943202281    -2.4854785552
 H     -7.6501049957     2.0985697157    -2.4377965522
 F     -7.1833047922     1.5774895701    -1.8449542022
 H     -1.9539534970     5.8541992195    -1.5451021783
 F     -2.5659052553     6.4893987946    -1.2942525313
 H     -2.1309862109     4.5324294276     0.9839221904
 F     -2.1102122622     3.6490575546     0.7387455661
 H     -2.5867651648     2.3284814633     1.5223407972
 F     -2.8756302409     1.5230652646     1.8521145299
 H     -5.8159136469     5.1810505442    -2.9040537116
 F     -6.5898370503     5.3522514733    -3.3651630342
 H     -3.8460226782     5.5652936050    -1.7535419174
 F     -4.3809050526     4.9103246357    -2.1082326205
 H     -7.3822615181     4.0496027989     1.3756205823
 F     -6.7022491092     4.2981328425     0.8128551417
 H     -5.5671968278     5.6012888571     0.5489399629
 F     -4.9712271004     6.2980603887     0.5341576495
 H     -3.4511605433     6.2142498412     1.4544986845
 F     -2.7410835894     5.8752521539     1.9254129947
 H     -4.6106723565     1.3513694230     2.0484112840
 F     -5.5174530700     1.3908684484     2.1790924404
 H     -7.7571073767     4.1657085545    -3.4061006810
 F     -8.2527980656     3.3999510623    -3.4998834305
 H     -1.3531262461     3.8618775382    -2.1146119085
 F     -0.9348192693     4.6472708075    -1.8931041530
 H     -8.6824244441     2.4904766853     2.2789873703
 F     -8.6326717331     3.4056663093     2.3079980544
 H     -5.4588144896     1.6000174913    -1.9746204699
 F     -4.5602749562     1.7151341915    -2.1169716284
 H     -7.3151917750     0.9729507694     2.0149800318
 F     -8.2225189698     0.8406289997     2.0266980081
          32
Energy: -120.61905667240165 Kcal/mole
 H     -3.3341954986     1.0198560450    -1.7034775079
 F     -2.4952303317     0.9648962780    -2.0695456337
 H     -7.3694342868     2.4559261031    -1.3006902230
 F     -6.8660633929     1.9449314320    -0.7293836596
 H     -2.8551635768     4.4120327691    -3.3633333938
 F     -3.4946840529     4.9012445033    -3.8021664369
 H     -2.2525315135     3.6468513533     1.4503469222
 F     -2.1067965566     2.7639589804     1.2499688289
 H     -3.5032365509     1.8716924207     1.3866662755
 F     -4.3253168607     1.4999136480     1.5505366766
 H     -6.8553869036     5.8468462751    -3.4765656550
 F     -7.4740700509     5.3343983757    -3.9187390528
 H     -4.7445480589     5.9402706296    -3.2711688889
 F     -5.4042108673     6.4132780961    -2.8445567513
 H     -7.5796516925     4.6663262207    -0.0351263873
 F     -6.8219032332     4.9172987956    -0.4864788428
 H     -5.4529548029     5.8552487579    -0.0505065114
 F     -4.7545113629     6.2443816359     0.3985384355
 H     -3.2095150145     5.7487848502     1.2248141800
 F     -2.5695116923     5.3666125940     1.7588826344
 H     -5.7221227477     1.1760422169     2.3018528453
 F     -6.5039368368     0.8584090762     2.6606911347
 H     -7.8321237209     3.9006701288    -3.1398563301
 F     -8.1395337196     3.2977119484    -2.5211241381
 H     -2.0644855680     2.5102163648    -2.3717348064
 F     -1.8548780200     3.3802208395    -2.5718494979
 H     -8.8982761272     3.6951735098     1.4925749778
 F     -8.9703678204     4.4013639645     0.9120693107
 H     -5.3873486869     2.3304651023    -1.0416543895
 F     -4.5741008306     2.5217846176    -1.4196937622
 H     -7.8928510243     1.8296829080     2.6352455368
 F     -8.5361961467     2.4828396698     2.6547979777
          32
Energy: -120.09393631372029 Kcal/mole
 H     -3.3079283707     2.1279508538    -1.9708870931
 F     -2.8233711583     1.7310611709    -2.6406421883
 H     -7.5359303736     2.4210835288    -0.6325246857
 F     -6.8556447549     2.6984639916    -0.0837437131
 H     -5.5615780777     2.4217467283    -5.2191994163
 F     -6.3220433217     2.9324517625    -5.2611753714
 H     -2.8450497205     5.0328681368     0.4156142043
 F     -2.5917283184     4.1803425544     0.6390362233
 H     -3.4668146305     2.8668877703     1.3208587392
 F     -3.9972623570     2.1818689546     1.6212974708
 H     -7.8466360257     5.1502528166    -3.2838497979
 F     -8.6965243180     4.9107835516    -3.0363960412
 H     -6.3319849131     4.4412891453    -4.6942926576
 F     -6.4177778719     5.2069077155    -4.1969429082
 H     -6.5342992770     5.6568369571    -0.2185955547
 F     -6.6238119447     5.9216046368    -1.0919652118
 H     -5.6393551865     7.2576770083    -1.4893763674
 F     -5.0272743383     7.9296580039    -1.3681840543
 H     -3.9727444847     7.0484848783    -0.5345773131
 F     -3.4804817831     6.5962813743     0.0931793464
 H     -5.1836073263     1.5385327030     2.7153689615
 F     -5.9897719866     1.5027003958     3.1509187131
 H     -8.7423357210     3.3729028541    -2.3460752220
 F     -8.5121032128     2.5128005632    -2.1267443275
 H     -3.5911378691     1.7605643226    -4.1124773031
 F     -3.9301368864     1.6839970021    -4.9610679652
 H     -6.5349897439     4.7724298752     1.9629248623
 F     -6.0911069762     5.3389334820     1.3946548984
 H     -5.3898928517     2.9797494899    -0.9648536900
 F     -4.5392067567     3.1125600390    -1.2804222653
 H     -7.0410052179     2.9766086729     3.1557168492
 F     -7.3672361689     3.7864169524     2.8752299205
          32
Energy: -120.27673253118931 Kcal/mole
 H     -2.6770131855     2.6726979900    -2.8065263491
 F     -2.4093857625     2.7820057253    -3.6767656159
 H     -6.2037394599     2.6053117257    -2.1013353767
 F     -5.6041714153     2.7642292048    -1.4259448269
 H     -4.5401410216     5.6070905080    -6.1777035766
 F     -5.1205334126     6.1829124893    -6.5929898854
 H     -0.8277824490     4.5137088605     0.1416532528
 F     -0.5719512359     3.7002936864     0.4789886125
 H     -1.6484066541     2.5070127360     1.2237984684
 F     -1.9976264817     1.9862105060     1.8929020100
 H     -8.5264433600     5.2040514398    -4.3866074238
 F     -8.9020654413     4.5073626400    -3.9235504420
 H     -6.5885148338     6.3571605911    -5.6570804713
 F     -7.2683675727     6.2797317751    -5.0465937541
 H     -6.7482678484     5.8840496241     0.6044675073
 F     -6.0276072409     6.2837892745     1.0066434648
 H     -4.8452875065     5.8772138539    -0.0701687051
 F     -4.2699168973     5.4778725484    -0.6620843948
 H     -2.5773518559     5.8043194209    -0.4202453230
 F     -1.6621377480     5.8333546150    -0.3709594814
 H     -3.7148894059     1.6749032548     1.6968343143
 F     -4.6046869183     1.6037881879     1.4868532816
 H     -8.0173684394     3.2174201712    -3.4245336069
 F     -7.4518417622     2.5300406003    -3.2041296529
 H     -3.1812904259     3.7320529638    -4.8637021737
 F     -3.6447504492     4.3381879583    -5.3723220468
 H     -7.8272886376     3.8962294168     0.2996507447
 F     -7.9019479574     4.6867040135    -0.1591137895
 H     -3.9213186848     2.7602832920    -0.8881839667
 F     -3.0107052764     2.6572055839    -0.9205445368
 H     -6.2244838164     2.2169092670     1.3849949160
 F     -7.0501198623     2.6124225135     1.3322370582
          32
Energy: -121.92734415184974 Kcal/mole
 H     -2.4853725994     4.4325524624    -1.6291658214
 F     -2.1487502276     4.7617142989    -2.4160755140
 H     -6.1490312083     3.8670436768    -1.1959846524
 F     -5.6826813046     4.3268230751    -0.5541048567
 H     -4.8211329902     6.1978155758    -5.2233090514
 F     -5.4852139299     6.4635727089    -5.7971196924
 H     -0.4526679780     4.3636412020     1.0287202582
 F     -0.3423345196     3.4552809511     0.9687437419
 H     -1.4395838824     2.3064882545     1.6078749756
 F     -2.0866864090     1.7831846008     1.9929731529
 H     -8.4414019982     5.6141270822    -3.8449233892
 F     -8.8899635980     4.9067132270    -3.4717650734
 H     -6.7984112730     6.7910049811    -4.9369085933
 F     -7.4474749030     6.8212758719    -4.2898467126
 H     -5.8611524881     6.7511275177     1.6075161356
 F     -5.4617740144     7.2692987409     0.9649553071
 H     -3.8088859250     7.2293033745     0.3464890106
 F     -2.9435885805     7.1100108424     0.0673496235
 H     -1.4881056038     6.4470214590     0.8529161317
 F     -0.7877042883     6.0238529929     1.2667463464
 H     -3.7925325860     2.0065967428     1.5935564271
 F     -4.7013726165     2.1036948724     1.5195918935
 H     -7.8063749903     3.7097336021    -2.7075872009
 F     -7.0518121245     3.2109902428    -2.5566602543
 H     -3.1586977754     5.7712684436    -3.2569600837
 F     -3.8348210688     6.1913435816    -3.7122436993
 H     -6.6569736727     4.6610577843     2.8258744664
 F     -6.7658283797     5.5309581405     2.5569636576
 H     -3.9751581515     4.1060359260    -0.2470409168
 F     -3.0650228423     4.0015882359    -0.2066255842
 H     -5.6844783688     2.8126770081     2.5687285477
 F     -6.2330775397     3.1938014983     3.1969578630
          32
Energy: -117.75370960875017 Kcal/mole
 H     -3.5159042110     5.0756809791    -2.0042562315
 F     -3.6432444645     5.2939012081    -2.8857625511
 H     -6.5725542142     3.9698042687    -1.3326407303
 F     -5.9864083537     3.4999149464    -0.8067832829
 H     -4.8608142128     7.1637220645    -5.8677637965
 F     -5.0346481272     7.1950187326    -6.7675922739
 H     -0.2209091821     5.0053193254     0.5179338137
 F      0.1672347290     4.3568571132     1.0372892446
 H     -1.1221275460     4.1103836272     1.9988379832
 F     -1.8622481823     4.2306909343     2.5266983774
 H     -6.6363909054     4.1958275803    -6.0568695355
 F     -7.0977987722     4.0781180989    -5.2732010735
 H     -5.1256708791     5.6727047825    -7.0922019524
 F     -5.4023408306     4.8008824164    -7.1575357105
 H     -5.5729646330     6.2292924257     2.0890050259
 F     -5.3650762152     6.5338633125     1.2494170432
 H     -4.0152830372     6.9439649832     0.1711039078
 F     -3.2976999581     7.2684630356    -0.2986455344
 H     -1.8810438638     6.5901093614    -0.5974365331
 F     -1.0945869112     6.1228568912    -0.6610729275
 H     -3.2018760168     3.3838626126     2.1869699271
 F     -3.9357394381     2.8944810007     1.9362926111
 H     -7.0471871111     4.7429868130    -3.6191902173
 F     -6.9940421258     4.9586222664    -2.7294902894
 H     -4.2296356837     6.6114892609    -3.7092391354
 F     -4.3483045597     7.3068745085    -4.2951111823
 H     -5.7910077311     4.6100629978     3.4516774819
 F     -5.6050100505     5.4982245053     3.5838251245
 H     -4.4216535262     3.9282247229    -0.5190266272
 F     -3.6267236622     4.3853560490    -0.5164845858
 H     -5.5569561283     2.7239199150     2.7050612729
 F     -6.3465093795     3.0043071774     3.0777241858
          32
Energy: -116.26995957199058 Kcal/mole
 H     -3.5591154626     2.6364013922    -3.2645895758
 F     -3.2390437623     3.4921167949    -3.3432931738
 H     -7.5046586577     1.3381595347    -2.8056063869
 F     -6.9078098367     1.6638799804    -2.1903286642
 H     -5.9527136510     6.0784545159    -4.0257206062
 F     -6.8471736472     6.2154977232    -3.8772299519
 H     -1.0992289161     4.8801072886    -2.0887139303
 F     -0.6922369647     4.1346964695    -1.7428682099
 H     -1.5685044034     3.1734971417    -0.9791989018
 F     -2.1900047851     2.6428213038    -0.5632548783
 H     -7.7162399611     3.5745112686    -6.0638447468
 F     -7.4359833914     2.7857662096    -5.6893764744
 H     -7.8975679272     5.7166385585    -5.2474080410
 F     -8.1643047754     5.1522671377    -5.9191411377
 H     -6.8009568196     5.7945613917    -0.7974337073
 F     -6.0772843890     6.3435677296    -0.6718182066
 H     -4.3100069865     7.1494248902    -0.5761760849
 F     -3.4614230090     7.4372016527    -0.7710575053
 H     -2.3721594317     6.8280933772    -2.1746290911
 F     -1.7651437452     6.3735574871    -2.6902045763
 H     -3.5570368496     3.6087750621    -0.0898810286
 F     -4.1804007642     4.2120967858     0.2072878251
 H     -7.8842756625     1.5159445249    -4.7375196898
 F     -8.0669504865     0.7737763931    -4.2308586860
 H     -3.9570730054     4.8459185252    -3.9326429120
 F     -4.4740609657     5.4765191912    -4.3521131123
 H     -7.7293403008     4.0880070324    -0.5667412948
 F     -7.8987068503     4.6411111868    -1.2782746857
 H     -5.4275142751     1.1728147990    -2.8201622457
 F     -4.5442546368     1.2266205570    -3.0606749308
 H     -5.7033962884     3.7404818851     0.6977477216
 F     -6.6074006954     3.5976034547     0.7547633881
          32
Energy: -119.0375580618275 Kcal/mole
 H     -3.7474518371     1.5113269000    -4.1636188120
 F     -3.5546833309     1.6430382907    -5.0504003028
 H     -6.4456409097    -0.2009834473    -2.1557064176
 F     -5.6393603947    -0.5383987596    -1.8783048347
 H     -5.4449228347     4.8120182200    -5.9900029137
 F     -5.8915039008     5.5282487410    -5.6315783160
 H     -2.8438786591     4.9048799099    -4.3220993582
 F     -3.0427754367     4.2740161881    -3.6870087849
 H     -2.5838319581     5.0052483587    -2.1032833814
 F     -2.5457687462     5.0952046890    -1.1915004848
 H     -8.6855233799     3.3297477899    -4.8918111598
 F     -8.7821296497     2.4524671376    -4.6429439547
 H     -7.4708355407     5.2026896729    -5.1864055765
 F     -8.2913461955     4.8160405469    -5.3211413133
 H     -6.4549860742     5.7414238928    -2.1102482928
 F     -6.0742279870     6.5738602176    -2.0558236262
 H     -4.9658928312     7.4385993240    -2.9503709315
 F     -4.4159902735     7.6943894484    -3.6381700222
 H     -3.1230329036     6.9698183191    -4.4549582124
 F     -2.5688076564     6.4166902080    -4.9322135613
 H     -3.1282553116     4.0401667070     0.0797792925
 F     -3.6302498734     3.3993475987     0.5019656616
 H     -8.3190361406     0.9696721441    -3.3791033724
 F     -7.8596955019     0.5200425564    -2.7250938836
 H     -3.9542730479     2.8760022694    -6.1614925424
 F     -4.4142651825     3.5609101512    -6.5617392532
 H     -6.8074875067     3.6400222649    -1.6458301174
 F     -7.0914696270     4.2076217306    -2.3077017076
 H     -4.5249454545     0.6746968843    -2.1170747745
 F     -3.9085549245     1.2682545207    -2.4466821874
 H     -5.1646764691     2.9890514244    -0.0234664353
 F     -6.0006651309     2.7590033430    -0.3219456433
          32
Energy: -122.61841150465844 Kcal/mole
 H     -3.2705989767     0.9268598433    -4.5389171772
 F     -3.2989929426     1.6480840852    -5.1045304511
 H     -5.9306346486     0.8623605754    -2.1182541418
 F     -5.5591503408     0.1145240012    -1.7392701483
 H     -4.9965052353     5.0526764494    -4.7032998047
 F     -5.6708400601     5.5815119447    -5.0296348518
 H     -1.6059773248     6.7962991358    -3.2235662367
 F     -1.7139914749     6.1750326722    -2.5577960626
 H     -1.4699665663     4.4739491542    -2.3407328166
 F     -1.2242794228     3.6298044900    -2.0800671048
 H     -8.5245889375     3.8700625555    -4.0473011290
 F     -8.6554943940     3.1278806399    -3.5248848528
 H     -7.3127871411     5.3615585647    -5.1481779412
 F     -8.2080603449     5.2225604916    -5.0065642901
 H     -5.6095611605     6.8045161651    -2.2391259999
 F     -5.2969278085     7.6267793383    -2.4980326649
 H     -4.5570356783     8.2183254319    -3.8809559494
 F     -4.1319298331     8.6414831386    -4.5745780192
 H     -2.4905979275     8.2307467371    -4.6829840183
 F     -1.6608094716     7.8737227551    -4.5252691026
 H     -2.4054543450     2.6301866075    -1.3778656463
 F     -3.2909038840     2.4671693253    -1.2038154248
 H     -7.1586781869     2.5882415199    -3.0899959348
 F     -6.3132265785     2.2987096549    -2.8843946772
 H     -3.5386619412     3.1701355814    -4.5233035160
 F     -3.6564857428     3.9990776971    -4.1493228739
 H     -5.5757873816     4.6246816423    -1.3483858066
 F     -5.9522746610     5.1204222967    -2.0217263832
 H     -4.1362645051    -0.0295157743    -2.7626696307
 F     -3.4318678693    -0.2439321519    -3.3092407573
 H     -4.5564239756     3.1834036407    -0.4652920472
 F     -5.2708517265     3.6096682371    -0.0795713158
          32
Energy: -122.43936781244086 Kcal/mole
 H     -4.9285076579    -0.3247247767    -2.7137427026
 F     -4.1648135025     0.0272305204    -3.0795127203
 H     -8.5112784575     1.9297167448    -1.5301245747
 F     -8.5073216021     1.0283756380    -1.3614309105
 H     -3.8100621852     3.5578607551    -5.0962992307
 F     -3.8891990040     4.4713145759    -5.1114148219
 H     -1.6541266858     4.5245349031    -3.4910852406
 F     -1.3128413462     3.6920638819    -3.6683006908
 H     -1.5514081612     2.8562438650    -2.2419098138
 F     -1.9735600799     2.5276769019    -1.4971141987
 H     -7.8188758520     4.5499136034    -5.1346352581
 F     -8.5259971447     4.2259077114    -4.6489515551
 H     -5.4041455500     5.1384733614    -5.4061992692
 F     -6.3050624630     5.2088709925    -5.5620257415
 H     -6.1446173926     7.5149615474    -3.1683876574
 F     -5.7813601266     8.1899367423    -3.6717182097
 H     -4.3277360632     7.7393527084    -4.3131862371
 F     -3.5151591829     7.4428324598    -4.6176259778
 H     -2.8155180785     6.3077499061    -3.5661727056
 F     -2.3796764068     5.9196191050    -2.8588640613
 H     -3.5200379461     2.8336897467    -1.8435645982
 F     -4.3807634837     3.1226877344    -1.9720975198
 H     -8.2238364027     3.7199240840    -3.0142238581
 F     -8.1510557004     3.6028109206    -2.1076498256
 H     -3.8659814582     1.1527833497    -4.3134571364
 F     -3.7228261166     1.8765230402    -4.8580637912
 H     -6.1667811523     5.7349405999    -1.5243785899
 F     -6.4862572029     6.0512321392    -2.3236180504
 H     -7.1722068375    -0.0407955457    -1.8734559487
 F     -6.5614817104    -0.6454051497    -2.1933794488
 H     -4.9956008762     4.0983824707    -0.8261310680
 F     -5.3131922043     4.7873030795    -0.3109484372
          32
Energy: -123.36222509637864 Kcal/mole
 H     -5.2930557667     0.2492361975     0.0889859250
 F     -4.5605457725     0.7189191659    -0.2003512788
 H     -8.5569720192     1.3078727524    -1.7295728358
 F     -8.5311773839     0.4572271317    -1.3880678362
 H     -4.7412931672     3.3714490619    -2.9347111867
 F     -4.7219049355     4.1759233414    -3.3744090717
 H     -2.0729422055     4.8007144171    -2.9287163949
 F     -1.9718893183     4.0592587076    -2.3986968245
 H     -2.7543501268     3.9078507767    -0.9176885450
 F     -3.2665530260     3.9531382768    -0.1584216405
 H     -7.4848286337     3.4609248837    -5.0788572835
 F     -8.1175031613     2.8644400166    -4.7876224207
 H     -5.7236237185     4.6075108019    -4.6854312462
 F     -6.4020208792     4.6744367744    -5.2987722660
 H     -6.9779395715     7.0204318820    -3.3788656185
 F     -6.4362862714     7.7326779328    -3.5793806194
 H     -5.0953903897     7.3009630869    -4.3348789979
 F     -4.3820954336     6.9182217689    -4.7657019188
 H     -2.9092026687     6.4547158202    -4.2754331450
 F     -2.1080826525     6.2007962502    -3.9085263837
 H     -4.7961233139     3.6581750028     0.3745083769
 F     -5.6425808558     3.3173599052     0.4653031951
 H     -8.1519238131     2.9987570040    -3.1342314766
 F     -8.1371347218     2.9611250363    -2.2181233401
 H     -4.8401928834     1.3165852776    -1.7129147054
 F     -5.0886663224     1.7905992047    -2.4575359158
 H     -7.7649192857     5.6022712810    -1.9434016143
 F     -7.9345911066     5.9062301619    -2.7917585391
 H     -7.6033950199    -0.2001128163    -0.1312014342
 F     -6.8405217972    -0.4420351896     0.3164446440
 H     -6.7326102127     4.3816952173    -0.0505956819
 F     -7.1122012280     5.1124258219    -0.4541207055
          32
Energy: -123.97837703568513 Kcal/mole
 H     -4.7480297497     0.1152973395    -1.1345334485
 F     -4.2267394465     0.6728950863    -1.6426969780
 H     -8.5400270757     0.2804587180    -1.6921588859
 F     -8.4104830520    -0.5879702031    -1.4276999007
 H     -4.4847095154     3.8858912611    -3.7745143793
 F     -4.2780464880     4.4709623686    -4.4496967193
 H     -2.6012228880     6.3531520166    -2.7715852811
 F     -2.8924660625     5.9026492257    -2.0278691735
 H     -2.7145329077     4.8206226741    -0.7104020253
 F     -2.8061193339     4.2012166639    -0.0404489515
 H     -7.8165286428     3.1390018606    -5.0534810379
 F     -8.5887415085     2.8413942034    -4.6585051241
 H     -5.6160616629     4.0776156008    -5.4653619166
 F     -6.3448132964     3.6693337674    -5.8436686719
 H     -6.8694192201     6.4276385177    -3.7452511841
 F     -6.6662252045     7.1476055675    -4.2755799870
 H     -5.2428524467     7.3160854255    -5.1644917745
 F     -4.4857046847     7.1928957051    -5.6669264064
 H     -3.1327607337     7.3336902268    -4.8169972602
 F     -2.4015271239     7.3644151426    -4.2645098056
 H     -4.4622753297     3.3969707411     0.2069200136
 F     -5.2777170321     2.9886743942     0.3030341282
 H     -8.7792026618     2.3527525463    -2.9652552390
 F     -8.7003591438     1.9257994606    -2.1575524705
 H     -4.7897851891     2.1046699316    -2.2147184222
 F     -5.0136752098     2.9275855927    -2.5517229820
 H     -7.1141009823     5.0338045651    -2.0086626787
 F     -7.1588049305     5.0239010368    -2.9245188230
 H     -6.8695620065    -0.8347562231    -0.7972917648
 F     -5.9957177403    -0.7951570076    -0.5221243603
 H     -6.3451855975     4.2351278592    -0.0540375778
 F     -6.8127486225     4.9443014305    -0.3995034422
          32
Energy: -121.79457869357996 Kcal/mole
 H     -4.6169589874    -0.3719130809    -2.1799497862
 F     -4.1598806341     0.4035985790    -2.3547354957
 H     -8.6056521823     0.3505578208    -2.0820058836
 F     -8.4855607152    -0.4577492660    -1.6659449590
 H     -5.0776328600     4.0077368972    -3.0521317279
 F     -4.7118250738     4.7622146252    -3.4233958138
 H     -2.6589886171     4.6813536817    -1.7079654668
 F     -2.6655095043     3.7670232557    -1.6383497355
 H     -2.8276528224     3.5496369604    -0.0283591884
 F     -2.9730463917     3.4014078825     0.8648249194
 H     -6.7118045818     3.0278399445    -5.5073411952
 F     -7.0148194363     2.1889200904    -5.2945396999
 H     -5.5227354288     4.7021662784    -4.8297797848
 F     -6.1835494423     4.6237868955    -5.4607080787
 H     -7.2978608371     6.5421596548    -2.1961192934
 F     -7.0686290962     7.4119030558    -2.3746920385
 H     -5.4036024579     7.6464140611    -2.8080134181
 F     -4.4985192567     7.7919255887    -2.8312468894
 H     -3.5375799091     6.7727604141    -1.9043836001
 F     -3.0161685854     6.2675901024    -1.3441852533
 H     -4.3082333933     2.6814469599     1.3542986717
 F     -5.1486407714     2.3633120414     1.5370406002
 H     -7.7926224452     1.7567915035    -3.9419400171
 F     -8.3485533879     1.5522874902    -3.2419343775
 H     -4.9667505761     1.7818459619    -2.4057675249
 F     -5.5237605318     2.5102527540    -2.3985249811
 H     -7.1768368595     4.7136579931    -0.8909419059
 F     -7.5044580374     4.9662204096    -1.7093339816
 H     -6.8650936269    -1.0322729117    -1.5721577425
 F     -5.9855601258    -1.2511624445    -1.7114315484
 H     -6.2805703969     3.2908015983     0.8939000139
 F     -6.7638675883     3.9898265671     0.5494048502
          32
Energy: -123.31062532496196 Kcal/mole
 H     -5.0816619393    -0.9088145612    -2.9112294162
 F     -4.3850585392    -0.3184963407    -2.8266297620
 H     -8.6456753615     0.5100236129    -2.4656995458
 F     -8.3741936590    -0.1835907746    -3.0005694054
 H     -4.6189363689     3.5536104053    -3.4380568887
 F     -4.8709736255     4.3253379399    -3.0116734538
 H     -2.3319852431     5.3659105781    -1.8658342309
 F     -2.0898519244     4.8552081065    -1.1437238228
 H     -2.9372893891     3.3276127025    -1.0650628766
 F     -3.3613052735     2.5179905730    -1.1399730718
 H     -8.2156572855     4.2135784865    -3.9174509711
 F     -8.9757323038     3.7152966823    -3.7954255218
 H     -6.1697113265     4.8849450838    -3.7565807528
 F     -6.9530638072     5.0654777642    -4.1977789421
 H     -7.3503168808     6.6547133170    -0.8500071815
 F     -6.6863066636     7.2779612740    -0.7425762016
 H     -5.5401859188     7.6399336970    -1.9337271876
 F     -4.9562825797     7.7703738273    -2.6286597476
 H     -3.5819021303     6.8791903392    -2.8451664281
 F     -2.8720068979     6.3436038438    -3.0689629089
 H     -5.0172940757     1.8131579182    -1.3380410234
 F     -5.9251126857     1.7281255063    -1.2404507555
 H     -9.0062254122     2.7299568044    -2.4927329346
 F     -8.9227197149     2.0712459890    -1.8602648642
 H     -4.3197089301     1.0324210006    -3.7661966734
 F     -4.3530970793     1.8912140098    -4.0859603344
 H     -7.7887983425     4.6159286870    -0.3222988268
 F     -8.0529347256     5.1365571873    -1.0294529371
 H     -7.1401912514    -1.2682762198    -3.0884618988
 F     -6.3988848548    -1.7993290986    -3.1850883256
 H     -6.5536877113     2.7174396725    -0.1381784134
 F     -6.9219144827     3.3572666016     0.4058064630
          32
Energy: -121.89654347505824 Kcal/mole
 H     -4.7028511745    -1.5399534918    -2.9694130000
 F     -4.4232689564    -1.2435790010    -3.7909268128
 H     -7.9013463695     0.0494321472    -1.5678118342
 F     -7.6446039747    -0.8176712572    -1.7198119288
 H     -4.8515145719     2.5234247613    -4.0280430829
 F     -4.9043336063     3.3012686814    -3.5452822875
 H     -3.5531306106     4.4538485501    -1.4534769465
 F     -4.0194180530     3.9991677867    -0.8079303374
 H     -3.2207926352     2.6992432198    -0.1650483903
 F     -3.0019078141     1.8851468449     0.1958193522
 H     -8.6853953598     3.6789857005    -3.6753222537
 F     -9.0047197734     2.8836409880    -3.3492122917
 H     -6.3606717844     4.1661746878    -3.9982213724
 F     -7.0850989614     4.7185921045    -4.1027644872
 H     -5.9804530667     5.5712533830    -1.4087135783
 F     -5.4986646358     6.2059155091    -1.8625559447
 H     -4.7950434171     6.6325572317    -3.4839885954
 F     -4.1928836475     6.4214361444    -4.1425631913
 H     -3.0611703353     5.6555453459    -3.1700005840
 F     -2.5976415429     5.1664076731    -2.5480886967
 H     -4.4003424870     1.1679863050     0.4084326259
 F     -5.2574533025     0.8466559521     0.4631761569
 H     -8.4408403808     2.1444036905    -1.9885199056
 F     -8.0852047170     1.6564754335    -1.2983472529
 H     -4.7202582734     0.2371349553    -4.5692627158
 F     -4.8548079491     1.0761959980    -4.9138812752
 H     -6.9860167508     3.9920619564    -0.2181549722
 F     -7.0899332302     4.4668199406    -0.9957764879
 H     -6.2053685938    -1.2871084993    -1.5071866040
 F     -5.4223345547    -1.7641794294    -1.5194349177
 H     -6.2316920647     2.2331629692     0.8221276432
 F     -6.5826848376     3.0546826382     1.0290056429
          32
Energy: -123.27130826307027 Kcal/mole
 H     -4.4708376725    -0.7349712533    -1.4950519367
 F     -4.4035849419    -0.1605297645    -2.2066578995
 H     -7.5253673280    -1.2577419307    -1.3284748551
 F     -7.2147573548    -2.0718442228    -1.0427338841
 H     -5.9077098889     3.2114606346    -3.6951355554
 F     -5.9546021114     4.1037546135    -3.9012946559
 H     -3.9157670371     3.8035146176    -1.8539737395
 F     -4.3331626242     3.0746798448    -1.4859115195
 H     -3.6626611227     2.0568684205    -0.2229645338
 F     -3.4805259374     1.6402533683     0.5733693613
 H     -8.9013378159     2.1938906577    -3.7829014962
 F     -9.0454913095     1.3060657558    -3.6043637865
 H     -7.6435821179     4.1105850199    -4.1351322812
 F     -8.4828839406     3.7412707149    -4.1434023802
 H     -7.0197527167     5.1516333595    -1.2717550735
 F     -6.8256496209     6.0360811961    -1.4165480722
 H     -5.6255869162     6.7713244263    -2.2251396914