          32
Energy: -128.52908770304532 Kcal/mole
 H     -2.9891430367     0.2886639450    -2.0862069754
 F     -2.5948062350     1.1042245501    -2.2285038000
 H     -5.7643057029     0.1084243918    -3.5246885889
 F     -5.7881185824    -0.7321915670    -3.1590565928
 H     -1.4001469759     2.9934799782    -5.0967293167
 F     -1.6006951318     3.7499944998    -5.5745945863
 H     -1.6410920299     3.6239805692    -0.8910276604
 F     -2.0085832764     3.5180559308    -0.0575895075
 H     -3.0794374265     2.3951553523     0.4312144171
 F     -3.7819651461     1.8966587191     0.7456105205
 H     -4.1943043652     2.0764648446    -7.0285206317
 F     -4.7693680760     1.4397912531    -6.7047344886
 H     -2.5324270460     3.4721544122    -6.8773803696
 F     -3.0735584028     3.1698339006    -7.5531526411
 H     -3.6590215786     5.7171382527    -5.0806404069
 F     -3.1115168373     6.4418772768    -4.9546209433
 H     -1.7507752352     6.3069475550    -3.9865075548
 F     -1.0302401920     6.1752877750    -3.4347975279
 H     -1.0349436169     4.6207193483    -2.8596941377
 F     -1.1367696831     3.7865671007    -2.4926648745
 H     -4.9350390983     1.8018528930    -0.3975205969
 F     -5.4569032731     1.7841008474    -1.1513320110
 H     -5.3507360592     1.5033072788    -5.0569946281
 F     -5.5795360097     1.5881538914    -4.1730598822
 H     -1.8241566734     1.2910793495    -3.6463855434
 F     -1.5446808122     1.4097735844    -4.5116565539
 H     -4.5517320269     3.9708860326    -4.1549871232
 F     -4.4312035699     4.1942109322    -5.0361726203
 H     -4.3587359564    -1.3218478289    -2.3957623130
 F     -3.5205212638    -1.2482153016    -2.0312580195
 H     -4.8934563158     3.1216279151    -1.9686663955
 F     -4.5032523383     3.7942520390    -2.4546773460
          32
Energy: -127.64875890665814 Kcal/mole
 H     -3.1317747032     0.0150606438    -1.7791322244
 F     -2.5565981832     0.7191330639    -1.8988944806
 H     -5.8652403046     0.1045654616    -4.1021289552
 F     -5.7327030996    -0.7610699369    -3.8301027689
 H     -1.9970684078     2.1491887825    -5.0753323690
 F     -2.3027828440     2.8967740349    -5.5095488748
 H     -1.6831128753     3.0067320075    -1.1000190218
 F     -2.1695139749     3.1821621287    -0.3427032073
 H     -3.3030186711     2.0239130961     0.3272343188
 F     -3.9435085105     1.4216103278     0.5877974418
 H     -5.3248298746     3.0309619070    -7.2462639320
 F     -6.0991444120     2.6436417369    -6.9440900037
 H     -3.2645577716     3.3427013723    -6.8527460413
 F     -3.8020715104     3.5404408629    -7.5688934245
 H     -3.5270861781     5.7545077345    -4.7252441054
 F     -2.7316407583     6.2106548454    -4.7344851692
 H     -1.4152791685     5.7003287221    -3.9088911666
 F     -0.7109146032     5.3138563704    -3.4668519369
 H     -0.7833588520     3.8069098144    -2.8246669277
 F     -0.9004777529     2.9552840831    -2.5054400854
 H     -5.1772258825     1.4551358603    -0.5428533737
 F     -5.6097462252     1.6301937881    -1.3322644676
 H     -6.0592943489     2.0440349132    -5.3356608413
 F     -5.9157593728     1.7509062266    -4.4787114357
 H     -1.9413696111     0.8043786097    -3.4580204361
 F     -1.7326418036     0.6754846288    -4.3415972829
 H     -4.7868260399     4.1366262142    -3.9985837695
 F     -4.7460584963     4.6348396630    -4.7673557557
 H     -4.9317438511    -0.9936001331    -2.4652332552
 F     -4.3905342669    -1.0525864974    -1.7273296065
 H     -4.9034238232     2.8733607510    -2.1905836299
 F     -4.4307660833     3.6205460086    -2.4338897165
          32
Energy: -128.7441507181095 Kcal/mole
 H     -3.3615227120     0.2847126331    -1.7532144486
 F     -2.8708000375     1.0579731800    -1.7995651057
 H     -6.5886009022     0.7232902735    -2.9608935702
 F     -6.5959773908    -0.1412399851    -2.6552434116
 H     -2.5306888113     3.2140479046    -4.7295203034
 F     -2.5879484346     4.0090740086    -5.1828897218
 H     -1.7690240654     3.3258985239    -0.5907851630
 F     -1.7890568147     3.1039350044     0.2987202529
 H     -2.9225725624     2.0309409260     0.8996187702
 F     -3.6175200094     1.5347130654     1.2338267239
 H     -5.6657733909     3.3784217464    -6.3848042918
 F     -6.3887139278     3.0881780175    -5.9010641157
 H     -3.5751792443     4.0032516446    -6.4303091463
 F     -4.2582231159     3.9537622311    -7.0401377020
 H     -4.0354365150     6.3807892230    -4.1339277360
 F     -3.3413056485     6.9704556840    -4.2405335755
 H     -1.9058369640     6.5928281232    -3.5650233986
 F     -1.2275607042     6.2708056582    -3.0385902619
 H     -1.5058368852     4.6837738449    -2.4304762662
 F     -1.8525469701     3.8687403287    -2.1929862991
 H     -4.7845325753     1.6436618526     0.0996152806
 F     -5.3971575405     1.8522621635    -0.5500504506
 H     -6.3453573141     2.7843044290    -4.2752137675
 F     -6.2410583571     2.3722704312    -3.4626630232
 H     -2.6597723633     1.5124968906    -3.2839989762
 F     -2.6384135554     1.6445120214    -4.1911950998
 H     -5.2209998648     4.8287126233    -2.9113328263
 F     -5.1122636428     5.1022711376    -3.7797976635
 H     -5.2109343035    -0.8063491189    -1.9757392213
 F     -4.3672354710    -1.0581814761    -1.7195327737
 H     -5.4112600110     3.4032840583    -1.0619634628
 F     -5.2838417040     4.2816060611    -1.2926234601
          32
Energy: -128.1962643240485 Kcal/mole
 H     -3.7429827109     0.7427319756    -1.3140122579
 F     -3.2343318690     1.4994649242    -1.4115753943
 H     -6.9658337080     1.4150033021    -2.4075235359
 F     -6.9829263089     0.5068223975    -2.2818084312
 H     -2.6327878183     3.4269013668    -4.8075118420
 F     -2.4462776901     4.1776125991    -5.2999908951
 H     -1.8001362997     4.1771669159    -0.6771770141
 F     -1.8887967397     4.1584823034     0.2353355675
 H     -2.9139029445     3.2972604562     1.1751567132
 F     -3.5570403600     2.8725538610     1.6720345381
 H     -6.0947577740     4.1064597314    -5.5874087019
 F     -6.8020449322     3.6435956839    -5.2318939351
 H     -3.8747636796     4.4501767490    -6.0717099608
 F     -4.7290255811     4.5605585891    -6.3862595643
 H     -3.9075412679     6.5059878708    -3.9541918528
 F     -3.2432123763     7.1310630801    -4.0481977381
 H     -1.7293623400     6.7457288340    -3.4871279586
 F     -0.9766647450     6.3942103962    -3.0988366785
 H     -1.3701837058     4.9122259384    -2.6895816523
 F     -1.6614952274     4.1286457945    -2.3127146260
 H     -5.0165258246     2.5400873772     0.8660508221
 F     -5.7043136466     2.5504305089     0.2596434246
 H     -6.8059737466     3.3346633253    -3.5541443902
 F     -6.7192836738     3.0952098285    -2.6732154179
 H     -3.1735064466     1.9036211492    -3.0237386076
 F     -3.2604494024     2.1801218384    -3.8937255566
 H     -4.9871059038     4.9835524577    -2.7515854954
 F     -4.9866552907     5.2327393400    -3.6340789485
 H     -5.6234999321    -0.2634130136    -1.5597890514
 F     -4.8025970768    -0.5521372395    -1.2705731743
 H     -5.3840199478     3.9617454943    -0.7813190525
 F     -5.0113285297     4.7326589653    -1.1094692120
          32
Energy: -128.63944467264474 Kcal/mole
 H     -4.0865801206     0.5004992411    -1.8674652546
 F     -3.4110061578     1.1205261158    -1.8600157289
 H     -7.1590511721     1.9420394953    -2.2778003514
 F     -7.5245593959     1.1379092180    -2.0314931540
 H     -2.7554763389     3.2572882826    -5.0517538747
 F     -2.4082130184     3.9824388920    -5.4927230117
 H     -1.2344561839     2.7878448439    -0.9902470742
 F     -1.0170452601     2.5113505634    -0.1433867533
 H     -2.1239866810     1.8733552826     0.8646588705
 F     -2.8973187706     1.6824215704     1.3189614093
 H     -5.9680091491     4.3550050328    -5.5247494943
 F     -6.6300728446     3.8373366062    -5.1578979396
 H     -3.7921667148     4.7371311070    -6.1193081376
 F     -4.6249858759     5.1052715406    -6.2278155838
 H     -3.2815155101     6.6458495554    -3.8137718259
 F     -2.5631684525     7.1369823407    -4.1030037259
 H     -1.1820618646     6.3309798961    -3.5960073210
 F     -0.5697615187     5.7383517271    -3.2572313776
 H     -1.1161188838     4.1520051758    -2.7856464215
 F     -1.6495452080     3.4421147268    -2.5567339772
 H     -4.3663477622     2.1699654624     0.6438620978
 F     -5.1174079545     2.5042329376     0.2375828313
 H     -6.3842971578     3.5341512960    -3.5380091263
 F     -6.2638874816     3.2946713032    -2.6610599585
 H     -3.5175716418     1.8299861030    -3.4072487812
 F     -3.6430583024     2.0864348222    -4.2786706953
 H     -4.4242667378     5.1760656686    -2.4340544410
 F     -4.5427109211     5.5948264042    -3.2412095821
 H     -6.2741081246     0.0760953919    -1.7673435097
 F     -5.4751611526    -0.3681167351    -1.6948982063
 H     -4.5651546318     3.7815540090    -0.6263611734
 F     -4.0195941781     4.4335173890    -0.9701584137
          32
Energy: -128.56992548056576 Kcal/mole
 H     -4.0261632811     0.6620154034    -1.7907537204
 F     -3.2886886768     1.1960250572    -1.8996293267
 H     -7.2435880334     2.1865988167    -2.1202108397
 F     -7.5122012964     1.3385125103    -1.8977574020
 H     -2.6316626985     3.7355461300    -4.4487310788
 F     -2.5626560373     4.6106048891    -4.7140596466
 H     -1.2343113350     2.9731560833    -0.7678952551
 F     -1.0509435431     2.5397994862     0.0191672028
 H     -2.3475665415     1.9400593845     0.8939512877
 F     -3.1637603466     1.8465388851     1.3013461683
 H     -6.0683733548     4.4888648303    -5.5352102357
 F     -6.6968584869     4.0031130046    -5.0770174786
 H     -3.8585918190     4.8248202527    -5.7287517053
 F     -4.6119991475     4.9954697885    -6.2228621519
 H     -3.6180453865     7.0664668523    -3.6527093550
 F     -2.8179550287     7.4806957594    -3.8234689287
 H     -1.6950463995     6.7125237420    -2.9124347911
 F     -1.1943403396     6.2296451857    -2.3149310326
 H     -1.3432433385     4.5562395839    -2.1100402478
 F     -1.4837624818     3.6525130899    -2.1765368221
 H     -4.5207992981     2.3350461491     0.4206199315
 F     -5.1186078492     2.7054794347    -0.1678468196
 H     -6.5845169436     3.8856844342    -3.4280632882
 F     -6.5818470138     3.6659172417    -2.5377912777
 H     -3.1202604322     1.8035015010    -3.3960232691
 F     -3.0008013434     2.1470870454    -4.2377877847
 H     -4.6634224921     5.5560038630    -2.4299714293
 F     -4.8372620117     5.9362461724    -3.2461114955
 H     -6.2489842697     0.3281433684    -1.6840179117
 F     -5.4410916115    -0.1037318703    -1.6430029022
 H     -4.5121909420     4.1756794217    -0.6859483107
 F     -4.0867908075     4.8830234498    -1.0854331684
          32
Energy: -127.37960234705064 Kcal/mole
 H     -3.9986354201     0.6100597855    -2.6325127509
 F     -3.2995432358     1.2021840403    -2.6718571904
 H     -7.4484573574     1.9885247412    -2.6486141232
 F     -7.5148206680     1.0739300717    -2.6473888257
 H     -2.3267110563     4.0669974489    -4.9986209781
 F     -2.3725546567     4.9828238640    -4.9915966009
 H     -1.3614004117     2.7969909558    -1.0995351924
 F     -1.2672240076     2.3846188842    -0.2859203699
 H     -2.5409284270     1.6554757482     0.4990310519
 F     -3.3180585206     1.2563570265     0.7777101931
 H     -5.7885874299     4.7513113266    -5.6552255457
 F     -6.3797799564     4.0764595187    -5.4656063640
 H     -3.7655638837     5.6578477177    -5.8427500193
 F     -4.5942842724     5.9131787869    -6.1409404995
 H     -3.9383022136     6.9584673754    -3.4222799699
 F     -3.2398640780     7.5525870241    -3.4125324689
 H     -2.0455555713     6.8148336570    -2.5767930179
 F     -1.4381073443     6.3261691209    -2.0939859935
 H     -1.3550734567     4.7077977816    -2.4083051811
 F     -1.4087737020     3.7951225560    -2.4792221481
 H     -4.7422767295     1.7282577384    -0.0614710651
 F     -5.3818779853     2.1569906292    -0.5594543399
 H     -6.9260751471     3.7785204005    -3.8226998365
 F     -7.1125193228     3.6007601454    -2.9426266230
 H     -3.0123687447     1.9684502933    -4.1662679046
 F     -3.0683301052     2.4036599331    -4.9714696778
 H     -5.0101623077     5.3395009580    -2.2452095209
 F     -5.1520255052     5.8604682668    -2.9863956624
 H     -6.1215813821     0.0583551184    -2.6147552234
 F     -5.2957420459    -0.3324907650    -2.6929721416
 H     -4.7309458433     3.6054464457    -0.8615805387
 F     -4.3326336263     4.4193937132    -1.0020306137
          32
Energy: -128.18074059712993 Kcal/mole
 H     -3.2975502387     0.6038172522    -2.7553849169
 F     -2.8144878110     1.3758369899    -2.6480293599
 H     -6.5383727913     1.3362436008    -3.8055960577
 F     -6.5246629570     0.4201903843    -3.7662572073
 H     -2.1255311668     4.0835444103    -5.1653503770
 F     -2.2570089874     4.9885166662    -5.2333783037
 H     -0.9670164738     3.0228613973    -1.2029726850
 F     -1.0654414629     2.7483501578    -0.3335791603
 H     -2.4470927959     1.9734155328     0.0857847838
 F     -3.2031171286     1.5642015815     0.4049401543
 H     -6.0922525492     5.1756527559    -5.8876067526
 F     -6.8686893587     4.9783631421    -5.4413874240
 H     -3.7590127173     5.1395950849    -5.9276176140
 F     -4.5056665072     5.1326765165    -6.4599232137
 H     -3.1591810067     7.1917690309    -3.2231463307
 F     -2.3975735162     7.6988142211    -3.2843689198
 H     -1.0195096043     6.7389606859    -3.1867809943
 F     -0.3657511193     6.1491169291    -2.9307083763
 H     -0.7836892154     4.5232304253    -2.8365159099
 F     -1.0653957508     3.6544416637    -2.7544396304
 H     -4.6004164740     1.7797685963    -0.4991938193
 F     -5.2720091271     2.0020376020    -1.0826737224
 H     -6.5665035795     3.6878110106    -4.4733343924
 F     -6.2332607300     3.0130987537    -3.9493099907
 H     -2.4388408803     2.0134280415    -4.2204516376
 F     -2.4080689722     2.3770320570    -5.0617210412
 H     -4.4154053396     5.4525236959    -2.7570568361
 F     -4.4013029535     6.1602111840    -3.3400392902
 H     -5.1237525361    -0.4072533204    -3.2532878776
 F     -4.2651755581    -0.6648582499    -3.0599636081
 H     -4.5393653807     3.4323841748    -1.6537170881
 F     -4.0614555560     4.2084327484    -1.7549090392
          32
Energy: -128.43566653371184 Kcal/mole
 H     -3.3147779331     0.6793474845    -2.5840029322
 F     -2.7807279341     1.4245004939    -2.5633488473
 H     -6.4975318988     1.5663225980    -3.8936647375
 F     -6.6042827490     0.6790788814    -3.6880149297
 H     -2.5241549437     4.1634132672    -5.0232532274
 F     -2.4913011095     5.0406452079    -5.2883451884
 H     -1.1641585542     3.5417734822    -1.2290701736
 F     -1.2382512823     3.2506230447    -0.3626807171
 H     -2.4672336808     2.3201679969     0.3192132631
 F     -3.2354541294     1.9233602366     0.6246145463
 H     -5.9371759526     4.9128768882    -6.6482056661
 F     -6.7001652360     4.5103364076    -6.3372434258
 H     -3.6200350002     5.2688189244    -6.4281685128
 F     -4.3299249928     5.3417724018    -7.0040356750
 H     -3.6250348662     7.3311122438    -3.7944794238
 F     -2.7909009873     7.6999326416    -3.6991841653
 H     -1.4296501287     7.0408512549    -2.9708931980
 F     -0.8040199247     6.5827858504    -2.4813506227
 H     -0.9216113070     4.9889963977    -2.7059677373
 F     -1.0338696059     4.0814189377    -2.7737189613
 H     -4.5521757276     2.0231945312    -0.5127236378
 F     -5.1364581441     2.2394795305    -1.1855712110
 H     -6.2076441612     3.6751756259    -5.0376577774
 F     -5.9029497571     3.1971746022    -4.3168489668
 H     -2.6203814818     2.2187442697    -4.0272000123
 F     -2.5802901244     2.5652759778    -4.8752551156
 H     -4.7959738014     5.4469363874    -3.3887474449
 F     -4.8644148378     6.1566275674    -3.9654130789
 H     -5.3332146670    -0.1903700170    -2.9919802316
 F     -4.4877480363    -0.4738031381    -2.7781091437
 H     -4.6093620998     3.6223154439    -1.8441064573
 F     -4.2072486681     4.3778469334    -2.1732963057
          32
Energy: -128.2547692314403 Kcal/mole
 H     -2.8036009695     0.1730989257    -3.0634146970
 F     -2.1648909071     0.8213506399    -3.1761452222
 H     -6.0615218318     1.5251437616    -3.6438659384
 F     -6.1973133926     0.6234040824    -3.5473506391
 H     -2.3824887515     4.0082939606    -4.9712414919
 F     -2.4715315105     4.9032528804    -4.7923311264
 H     -0.6591419765     2.2863273012    -1.4371026619
 F     -0.5081123138     1.8957251108    -0.6213153306
 H     -1.8733188666     1.1604308051     0.0271301043
 F     -2.7180506576     0.8634907214     0.2249779950
 H     -5.8335138160     5.0186096470    -6.1207023171
 F     -6.5884032854     4.5775497651    -5.8441212810
 H     -3.6790864045     5.5448002583    -5.8264581338
 F     -4.3378553520     5.6590326384    -6.4540435362
 H     -3.6335833732     7.1482058031    -3.0884243932
 F     -2.8228647424     7.5122921208    -2.8624477241
 H     -1.6192005052     6.4161137442    -2.4384713917
 F     -0.9599088398     5.8503784942    -2.1449290153
 H     -0.9813946802     4.2828786234    -2.5570077892
 F     -0.8844812809     3.3955303816    -2.7670313375
 H     -4.0747189771     1.5412056812    -0.5124889308
 F     -4.7099964217     1.9366656694    -1.0425105966
 H     -6.2299872430     3.6510585171    -4.4873910449
 F     -5.8617250133     3.1461104918    -3.8163475128
 H     -2.5076035535     1.9214350775    -4.4154320261
 F     -2.7457090254     2.4089800703    -5.1546848004
 H     -4.8527932544     5.4976624984    -2.7373953453
 F     -4.8760631845     6.1746709705    -3.3554625253
 H     -4.9095572985    -0.2636473832    -3.1545858980
 F     -4.1527740854    -0.7368600714    -2.9442577730
 H     -4.6061743144     3.6006168636    -1.2286926438
 F     -4.5555665214     4.4990093942    -1.4053808218
          32
Energy: -128.039304905937 Kcal/mole
 H     -2.7389863194     0.2599328220    -2.8506784619
 F     -2.0994524994     0.9103385910    -2.7565624229
 H     -6.0312755044     1.4382326343    -3.6191012003
 F     -6.0835224901     0.5536515761    -3.8550579846
 H     -2.4509071204     4.3219134524    -4.0907361341
 F     -2.3324230695     5.2310045448    -4.0706384852
 H     -1.3589772840     2.3805832497    -0.3305740769
 F     -1.1738226814     1.7258242506     0.2841595452
 H     -2.3784285465     0.5292896214     0.2912353895
 F     -3.1833256447     0.0905862769     0.2673808954
 H     -5.4485873889     5.1262693986    -5.7178517105
 F     -6.1715487247     4.5768226393    -5.5900856523
 H     -3.3548453802     5.8453312690    -5.2510339201
 F     -4.0215134562     6.0143493747    -5.8575613774
 H     -3.7351364001     7.1957525102    -2.6553401450
 F     -3.0078306064     7.7186402694    -2.4591166150
 H     -1.9873534145     6.7235435538    -1.5764808285
 F     -1.6753896954     6.0830394301    -0.9991402829
 H     -1.8608533086     4.4430824505    -1.2369241026
 F     -1.8891633787     3.5423223845    -1.4063904517
 H     -4.2391531048     0.9917933236    -0.6455154692
 F     -4.7575508326     1.6196926123    -1.0672918070
 H     -5.9784820390     3.7258023201    -4.1525603455
 F     -5.8542136235     3.1533817801    -3.4470243179
 H     -2.4271985798     2.2681255781    -3.7873699564
 F     -2.8152688743     2.8113988273    -4.4159752564
 H     -5.0648687654     5.5134697593    -2.1186060199
 F     -5.0344715281     6.1029048720    -2.8204117308
 H     -4.7273951972    -0.4060365755    -3.4120985974
 F     -3.9403543051    -0.8037426084    -3.1605324120
 H     -4.8799566066     3.3353335674    -1.0679560178
 F     -4.7881627584     4.2431033547    -0.9762123390
          32
Energy: -128.98058163859974 Kcal/mole
 H     -3.1192569754     0.4652426326    -2.8223314378
 F     -2.6840654983     1.2171084298    -2.5287412451
 H     -6.0232322790     1.4232669063    -3.8286413843
 F     -6.0749694265     0.5461398231    -4.0910539365
 H     -2.2834312374     4.7710741508    -3.5465230082
 F     -2.4273926233     5.6626378195    -3.3875313608
 H     -1.6598450790     2.8028713291    -0.0401957193
 F     -1.9822745551     2.2377629975     0.6060092067
 H     -3.1511074473     0.9740199246     0.5645851505
 F     -3.8466789917     0.3811806911     0.4896794114
 H     -5.3545679841     5.4736380661    -5.3785668950
 F     -6.0731910952     4.9069444069    -5.3208770279
 H     -3.3969287648     6.1383035064    -4.6229319443
 F     -3.9823102765     6.3188646737    -5.3052919303
 H     -4.2437876196     7.1136871118    -1.6706453373
 F     -3.5389122900     7.6680109865    -1.4789038143
 H     -2.1719898424     6.7719678791    -0.9109216280
 F     -1.6183616853     6.1547926673    -0.5191568752
 H     -1.2670820676     4.6488532169    -1.0412711892
 F     -1.1227492632     3.7767576529    -1.2852104622
 H     -4.9774397989     0.8792055304    -0.6256910654
 F     -5.4782668321     1.4118455027    -1.1791853676
 H     -5.9619772430     3.7463708522    -4.1807490112
 F     -5.7184736417     3.1195261748    -3.5573223944
 H     -2.4191687177     2.5107117852    -3.5679495707
 F     -2.4054241083     3.2275384367    -4.1396659666
 H     -4.9059307172     4.9940560661    -1.6289074920
 F     -5.1207081304     5.7633737318    -2.0793628083
 H     -4.7571556347    -0.4661137222    -3.7537813530
 F     -3.9714396840    -0.8232862397    -3.4439955601
 H     -4.8721940695     2.9378579116    -0.9262886683
 F     -4.3540022291     3.6867308608    -0.8187920525
          32
Energy: -128.84426984606168 Kcal/mole
 H     -3.1134737844     0.6516666375    -2.4527771544
 F     -2.6934803679     1.4565016332    -2.3234127087
 H     -6.0581162428     1.4200809372    -3.9700257820
 F     -5.8624932267     0.5314987578    -4.0842288733
 H     -2.5798684549     4.8895849418    -4.0854950994
 F     -2.5712655699     5.8054728083    -4.0411734750
 H     -1.9810900004     2.9722130797    -0.1825359307
 F     -2.1914910192     2.3775336125     0.4830290493
 H     -3.3348726508     1.1842888548     0.5886623540
 F     -3.9823305857     0.5389871344     0.5160475335
 H     -5.5375550293     5.6543848264    -5.5356718484
 F     -6.0664725758     4.9056864278    -5.5598779837
 H     -3.7508485119     6.5567681360    -4.8990581442
 F     -4.4747600749     6.8729853663    -5.3647272458
 H     -4.4063970710     7.1302584903    -1.9365280147
 F     -3.8469458553     7.6923425843    -1.4761316545
 H     -2.4601577716     7.1032308247    -0.8956534847
 F     -1.7107445159     6.6834731651    -0.5746047668
 H     -1.7896483094     5.1071406868    -1.0303360759
 F     -1.8761777692     4.2317925536    -1.2895026212
 H     -5.1678757219     1.0185286190    -0.5723174435
 F     -5.6715177058     1.4526963677    -1.2037698313
 H     -6.2391773068     3.7363370393    -4.3491263648
 F     -6.3118333768     3.0450769395    -3.7509879444
 H     -2.7113096941     2.7219657044    -3.5465374677
 F     -2.7299749939     3.3112523166    -4.2488777665
 H     -5.4885639234     5.0858267860    -1.8927483336
 F     -5.3426126599     5.7624399613    -2.4942313673
 H     -4.8358789796    -0.3473175258    -3.1432551402
 F     -4.0677864177    -0.6659402629    -2.7567291154
 H     -5.5472214569     3.0342309131    -0.8991241495
 F     -5.4193782112     3.9132184115    -0.6712511977
          32
Energy: -129.16910085246184 Kcal/mole
 H     -3.2404298575     0.5981541536    -2.7609819994
 F     -2.8860342557     1.3044384081    -2.2957344208
 H     -6.3914734917     1.4334127285    -3.7949482495
 F     -6.4299563286     0.5538503421    -4.0514206257
 H     -2.8002779435     4.8234780279    -3.8584931929
 F     -2.6842612101     5.7327907737    -3.8825649154
 H     -2.2366477515     3.0065166775    -0.1608417449
 F     -2.4577983428     2.3797789891     0.4709662053
 H     -3.2644769696     0.8755754035     0.5449157636
 F     -3.8862882522     0.2050657356     0.4766771078
 H     -5.9573904723     5.6789542624    -5.0828246441
 F     -6.5414318059     4.9720512053    -5.0913562666
 H     -3.9172795162     6.4819872800    -4.5648998887
 F     -4.6942014933     6.7462697751    -4.9740893365
 H     -4.9366121061     7.0875340058    -1.7701864186
 F     -4.3116450925     7.7433901186    -1.6282075781
 H     -2.8606233725     7.0865181832    -1.0915032299
 F     -2.1002532908     6.6313499694    -0.8558164970
 H     -2.0459563891     4.9856882694    -1.2745120940
 F     -2.0982649282     4.0866712873    -1.4474897881
 H     -5.0570899271     0.6931662773    -0.5382586147
 F     -5.6470453977     1.1313342210    -1.0867569246
 H     -6.4038338656     3.7338490412    -4.0184043774
 F     -6.2254286937     3.0609729576    -3.4214970389
 H     -3.0442151391     2.5795656467    -3.4038743021
 F     -3.2107971661     3.2198535192    -4.0388316774
 H     -5.6923257501     4.9310970921    -1.7380235151
 F     -5.8190791528     5.7051839606    -2.2130099305
 H     -4.9774254221    -0.3067559357    -3.8046551565
 F     -4.1122214165    -0.5553963848    -3.6300442869
 H     -5.4586538206     2.7926779240    -0.8674911848
 F     -5.3044709282     3.6796203225    -0.6929924246
          32
Energy: -128.75414401439522 Kcal/mole
 H     -3.2267891595     0.6166084890    -2.9093103269
 F     -2.7147864845     1.3312679838    -2.6485344322
 H     -6.7909674490     1.6550921751    -3.9025602070
 F     -6.6091881460     0.8288277167    -4.2563006908
 H     -3.4345557392     4.9766611707    -3.6012672461
 F     -3.3747120849     5.8916484940    -3.6115597314
 H     -2.0114204461     3.0388476652    -0.0858642132
 F     -2.0584227372     2.5626456575     0.6963834665
 H     -2.9222736530     1.1673945834     0.5023008502
 F     -3.5295640899     0.5020288277     0.3309073368
 H     -6.3403845547     5.7702962162    -5.1284620483
 F     -6.8576499322     5.0131146233    -5.1272111846
 H     -4.5898811206     6.6936827076    -4.4538748146
 F     -5.2619419106     7.0236239536    -4.9833670890
 H     -5.3254441234     7.0299747039    -1.5298809388
 F     -4.7648231411     7.6685685117    -1.1852201448
 H     -3.2176784311     7.1306151545    -1.0109982088
 F     -2.4819584343     6.6539998357    -0.7418459765
 H     -2.4143870127     5.0601546629    -1.1131325571
 F     -2.2647328648     4.1846618893    -1.3411786917
 H     -4.8326368316     0.9014507762    -0.6748418922
 F     -5.4451448350     1.2774711182    -1.2443431197
 H     -7.0699259515     3.8267132070    -3.9228596478
 F     -7.0989225057     3.1466590632    -3.3083886872
 H     -3.2432120997     2.6605945373    -3.4140817690
 F     -3.6955098520     3.3433058896    -3.8266601890
 H     -6.2052996582     4.9546175915    -1.5392241740
 F     -6.1585718858     5.6902224426    -2.0847432096
 H     -5.1979027730    -0.1253781675    -3.8816012023
 F     -4.3903949163    -0.4402283497    -3.5821192760
 H     -5.8681678553     2.8411076546    -0.7594339498
 F     -6.0290851791     3.7103014034    -0.5155142047
          32
Energy: -129.69075734242296 Kcal/mole
 H     -3.3193707436     0.7201106516    -3.4414228737
 F     -2.7680504211     1.4153720986    -3.2100218747
 H     -6.6251410023     1.9374283171    -3.9541380067
 F     -6.5310692175     1.1031078148    -4.3228503590
 H     -3.4729379624     5.1803979317    -3.6568294261
 F     -3.5747521936     6.0568654010    -3.4071743891
 H     -1.5959692231     2.6365763234    -0.7469023194
 F     -1.3935988062     1.8404936385    -0.3392412185
 H     -2.6239820655     0.6156286375    -0.3731194453
 F     -3.3876982036     0.1080812797    -0.3778459669
 H     -6.9106991453     6.0880507298    -4.6908713952
 F     -7.4612962647     5.3548173706    -4.6808388051
 H     -4.9371854700     6.9497399072    -4.1868213759
 F     -5.7195306535     7.2187041639    -4.5824010043
 H     -5.1442630930     7.1439431139    -1.2827788490
 F     -4.4791986083     7.7092825930    -1.0017637168
 H     -3.1943767510     6.7668612149    -0.4988546245
 F     -2.5294859951     6.1687515955    -0.2961870000
 H     -2.2856982945     4.7569886102    -1.1307083945
 F     -2.1331415349     3.9790799555    -1.5916569383
 H     -4.7465081177     0.8744606485    -1.0013001776
 F     -5.4448567985     1.3703167180    -1.3289049369
 H     -6.8088319259     4.1525247672    -3.8020933944
 F     -6.5015785572     3.4525695076    -3.2955887035
 H     -3.2860850994     2.8715808811    -3.9170188968
 F     -3.6872398041     3.5990565798    -4.3052752692
 H     -5.9190724647     5.1593792973    -1.4650999577
 F     -6.1429030300     5.9785259972    -1.8112033556
 H     -5.2884090575     0.0517812368    -3.9910197705
 F     -4.4814620234    -0.3567038691    -3.8398066681
 H     -5.3656822146     2.9705709771    -0.9821586136
 F     -5.2349323696     3.8342051215    -0.7029999801
          32
Energy: -129.020060524657 Kcal/mole
 H     -3.4990168558     0.3249503318    -3.3876640128
 F     -2.8921770358     1.0008801024    -3.2621515512
 H     -6.7770134724     1.8350835818    -3.6615727872
 F     -6.6514051902     1.0362896904    -4.0940538601
 H     -3.9496295387     4.6372263997    -3.6967545093
 F     -3.9600991020     5.5150951790    -3.4319417557
 H     -1.7827204459     2.8180300929    -0.8738521011
 F     -1.7860454643     2.2397731129    -0.1621662088
 H     -2.6680753310     0.8379996838    -0.2643257255
 F     -3.3565443720     0.2333928768    -0.3010679151
 H     -7.5849790182     6.0226369492    -3.6190432339
 F     -8.2791953297     5.4245705477    -3.5834161076
 H     -5.3459982111     6.4197601563    -3.5829901376
 F     -6.1500309784     6.8538008483    -3.6606366876
 H     -5.4053266950     6.9492888764    -0.9537962269
 F     -4.5986405001     7.3654490506    -1.0840156279
 H     -3.0002010166     6.6472874401    -1.0689131520