          32
Energy: -131.51111501573553 Kcal/mole
 H     -4.3302372793     1.3507041855    -6.1247144116
 F     -3.7222609843     1.9609903115    -5.8103823116
 H     -7.6745443393     1.8150621407    -4.6476372613
 F     -7.7183107147     1.2766287046    -5.3886250745
 H     -4.7427322419     5.3228907666    -4.5115504096
 F     -4.6857962626     6.0412399021    -3.9444333020
 H     -1.6433912457     2.6200444226    -3.9529872521
 F     -1.2971280920     1.7962809536    -3.7470635390
 H     -2.2743310437     0.4493496481    -3.7526387193
 F     -2.9116161820    -0.2081932541    -3.7037103613
 H     -8.1575041920     5.8294656792    -3.5089419848
 F     -8.7102059092     5.0978416426    -3.4972766084
 H     -6.1513788722     6.7729949928    -3.7591563459
 F     -7.0239262000     7.0338172778    -3.6518162486
 H     -4.9776425475     5.8927149278    -1.0351764825
 F     -4.2256367955     6.3978313367    -0.8929310519
 H     -2.8593086217     5.9124929749    -1.6830318486
 F     -2.1256119754     5.5491590284    -2.0960290332
 H     -2.2979490136     4.6510830755    -3.4598055647
 F     -2.3821541947     4.1000576915    -4.1879329668
 H     -4.4485181654     0.3389659838    -3.5637136325
 F     -5.2524106586     0.7667624803    -3.4558432618
 H     -7.9389852464     3.6403638236    -3.3835976330
 F     -7.4454679113     2.8676720009    -3.3669547040
 H     -4.5660448657     3.3559096105    -5.6220039811
 F     -5.1742928986     4.0216764646    -5.4556374386
 H     -5.7455223289     4.0854939681    -1.7701140884
 F     -6.1882169405     4.8486443880    -1.5200902546
 H     -6.3661126472     0.6270327580    -6.1174665814
 F     -5.5765982503     0.3927935070    -6.5208125748
 H     -4.9841075163     2.1762617936    -2.6347860992
 F     -4.6449545522     2.9352462497    -2.2477371846
          32
Energy: -131.4606483556127 Kcal/mole
 H     -4.3024351942     1.3844113579    -6.1456283145
 F     -3.6905000827     1.9743508827    -5.8015414411
 H     -7.6774325289     1.8185052966    -4.7170108203
 F     -7.7493999659     1.3033728104    -5.4722248361
 H     -4.7799830232     5.3474808639    -4.5186220310
 F     -4.7359860318     6.0690219682    -3.9544131162
 H     -1.6496887078     2.5961018838    -3.9665420853
 F     -1.2898087025     1.7823819914    -3.7446517552
 H     -2.2710578073     0.4528909303    -3.6869092478
 F     -2.9113064022    -0.1995449997    -3.6141212407
 H     -8.1986229427     5.8587210014    -3.4884908259
 F     -8.7080246545     5.0962897154    -3.4983614951
 H     -6.2226891196     6.8299674213    -3.7381687779
 F     -7.0919599985     7.1015449503    -3.6309177412
 H     -4.9943209492     5.9081724254    -1.0370669074
 F     -4.2283297196     6.3812016815    -0.8627403197
 H     -2.8638915447     5.9187943531    -1.6742117697
 F     -2.1425984492     5.5832800691    -2.1303427111
 H     -2.3052919586     4.6540965324    -3.4746657982
 F     -2.3897554191     4.0813856817    -4.1858318866
 H     -4.4641876122     0.3518761965    -3.5815107291
 F     -5.2769558853     0.7715588274    -3.5169876829
 H     -7.9312512017     3.6455414880    -3.4503553429
 F     -7.4508633436     2.8646275822    -3.4333266177
 H     -4.5243679383     3.4116166876    -5.6055650734
 F     -5.1532047254     4.0676774525    -5.4829373114
 H     -5.7909813039     4.1082454688    -1.8003527754
 F     -6.1917234049     4.8848265137    -1.5224739363
 H     -6.3706196570     0.6661197028    -6.1921778357
 F     -5.5708953561     0.4251306426    -6.5706673539
 H     -5.0115888533     2.1746963868    -2.6630977277
 F     -4.6853733894     2.9434196517    -2.2842349383
          32
Energy: -131.3758503174361 Kcal/mole
 H     -4.2976265597     1.3959632278    -6.1633826282
 F     -3.7086241351     2.0035582674    -5.8101215183
 H     -7.6661974645     1.9418886911    -4.7423861789
 F     -7.7128673175     1.4588092146    -5.5204254737
 H     -4.8129298147     5.3459718356    -4.5130792300
 F     -4.7342382806     6.0691020186    -3.9547071490
 H     -1.6759550558     2.6368216005    -3.8863991362
 F     -1.3415401757     1.8196874658    -3.6387148737
 H     -2.3026584569     0.4724594187    -3.6994192050
 F     -2.9319108797    -0.1940968632    -3.6742574991
 H     -8.1917678306     5.8360079089    -3.4751813718
 F     -8.7342872815     5.0967156778    -3.4781211643
 H     -6.1979966377     6.8315444351    -3.7326607740
 F     -7.0736744089     7.0825990970    -3.6275465604
 H     -5.0132022135     5.9544216574    -1.0691867774
 F     -4.2558602587     6.4602969497    -0.9623581660
 H     -2.8387159744     5.9715818709    -1.6893106669
 F     -2.1080584009     5.6000892500    -2.1004332070
 H     -2.2606766414     4.6884734657    -3.4434545490
 F     -2.3624115328     4.1237899777    -4.1587667678
 H     -4.4878579651     0.3211990764    -3.5252395562
 F     -5.2861479857     0.7578721970    -3.4114914624
 H     -7.9510937843     3.6485065338    -3.3618913751
 F     -7.4830143258     2.8599888611    -3.3674140888
 H     -4.5642933963     3.3950252453    -5.6031266882
 F     -5.1908321794     4.0486409696    -5.4577835142
 H     -5.7719018625     4.1116348768    -1.7808796818
 F     -6.1927355252     4.8846467135    -1.5235069390
 H     -6.3743802163     0.7887158744    -6.2457977411
 F     -5.5940511945     0.5045679420    -6.6346879189
 H     -4.9397342615     2.1723556964    -2.6557506811
 F     -4.6268034412     2.9612639919    -2.3084942873
          32
Energy: -131.49873216519012 Kcal/mole
 H     -4.3032575543     1.3920526479    -6.1467873338
 F     -3.7083254239     2.0037657146    -5.8110018603
 H     -7.6961411662     1.8594221979    -4.7493095476
 F     -7.7593287478     1.3961176826    -5.5381347853
 H     -4.7844143370     5.3646132562    -4.5584071356
 F     -4.7147331312     6.0748208922    -3.9825263812
 H     -1.6980689221     2.6265368989    -3.8256455780
 F     -1.3838079046     1.8001513369    -3.5823023721
 H     -2.3463038085     0.4729080513    -3.6642509535
 F     -2.9781844046    -0.1909426406    -3.6945522930
 H     -8.2081520615     5.8219164021    -3.5447789621
 F     -8.7488643534     5.0812959115    -3.5440674051
 H     -6.2039298557     6.8124875799    -3.7711463681
 F     -7.0794885986     7.0657832017    -3.6705122995
 H     -4.9959525682     5.8874362492    -1.1109765336
 F     -4.2439989091     6.3704175229    -0.9055896213
 H     -2.8534356663     5.9878432189    -1.7060482640
 F     -2.1135692837     5.6808122363    -2.1523874977
 H     -2.2833010998     4.7265310179    -3.4776247503
 F     -2.3798729839     4.1118771208    -4.1512444189
 H     -4.5298961826     0.3301762777    -3.5930162433
 F     -5.3296862336     0.7686763297    -3.4984510349
 H     -7.9905014207     3.6337355322    -3.3900021091
 F     -7.5115903224     2.8517666977    -3.3823927728
 H     -4.5934662068     3.3803385136    -5.5962454001
 F     -5.2180491718     4.0349768412    -5.4471354412
 H     -5.8222352493     4.0884084048    -1.8098668941
 F     -6.2216111626     4.8843865672    -1.5912195871
 H     -6.3978225392     0.7297890186    -6.2335117116
 F     -5.5990808390     0.4839366051    -6.6109468546
 H     -5.0504861943     2.1407660994    -2.6190110522
 F     -4.7319613559     2.8938196176    -2.2038709238
          32
Energy: -131.43896002459618 Kcal/mole
 H     -4.3246785015     1.3869624379    -6.1344356178
 F     -3.7262187433     1.9949498540    -5.7981526717
 H     -7.6926062523     1.8926991485    -4.7701755062
 F     -7.7595162668     1.3943524172    -5.5370278944
 H     -4.8047016118     5.3465040155    -4.5286278793
 F     -4.7530088408     6.0606025254    -3.9556704851
 H     -1.7355879165     2.6170460234    -3.8052854480
 F     -1.3818176086     1.8006548060    -3.5833824299
 H     -2.3393017169     0.4445108648    -3.7415548084
 F     -2.9826103560    -0.2087261863    -3.7595645310
 H     -8.2104337468     5.8613422363    -3.5889645514
 F     -8.7129521271     5.0969237183    -3.6524358581
 H     -6.2218950654     6.8314734831    -3.7369048019
 F     -7.0925644000     7.1032467310    -3.6422305635
 H     -5.0165528309     5.9250067522    -1.0919501082
 F     -4.2603069940     6.4103513015    -0.9091335263
 H     -2.8379309821     6.0085240482    -1.7220304131
 F     -2.0947471015     5.7043930331    -2.1648295158
 H     -2.3114016491     4.6833467662    -3.4108629421
 F     -2.4358994010     4.0882551158    -4.0973432676
 H     -4.5313045963     0.3242883739    -3.5757645102
 F     -5.3296115205     0.7689886694    -3.4993661995
 H     -7.9825777999     3.6418029317    -3.4480934663
 F     -7.5106538169     2.8563864863    -3.4120690084
 H     -4.6066766822     3.3822602612    -5.5566646311
 F     -5.2320354430     4.0459910890    -5.4603484410
 H     -5.8194718518     4.0836296942    -1.7859745785
 F     -6.2217577545     4.8846400668    -1.5924870192
 H     -6.4008636371     0.7423381029    -6.2486748999
 F     -5.5989195158     0.4832709051    -6.6101424825
 H     -5.0512004754     2.1373800281    -2.6131233810
 F     -4.7417348769     2.8863902099    -2.1840502043
          32
Energy: -131.44536713338718 Kcal/mole
 H     -4.3307081500     1.3878860159    -6.1239153375
 F     -3.7249485331     2.0068243280    -5.8224859886
 H     -7.6988724994     1.7886061742    -4.7267461092
 F     -7.7661188813     1.2808357976    -5.4873617603
 H     -4.7947449162     5.3409254249    -4.5224182383
 F     -4.7535370205     6.0608984567    -3.9559998922
 H     -1.7530144431     2.5833106773    -3.8187595300
 F     -1.4205298129     1.7623664722    -3.5812861992
 H     -2.3783992326     0.4111430430    -3.6966635289
 F     -3.0104425929    -0.2513837896    -3.7463463913
 H     -8.2059249639     5.8574681007    -3.5754451940
 F     -8.7254144424     5.1052472187    -3.6474412109
 H     -6.2098850758     6.8107125121    -3.7691659786
 F     -7.0754942405     7.0879795351    -3.6477873483
 H     -5.0758552603     5.9434157498    -1.1023704888
 F     -4.3193916804     6.4343926453    -0.9362574541
 H     -2.8925918230     6.0652496050    -1.7557930608
 F     -2.1505166865     5.7245511672    -2.1730915945
 H     -2.3488246821     4.6902322543    -3.4382419520
 F     -2.4739719287     4.0690053742    -4.1010423217
 H     -4.5649159586     0.2853764596    -3.5845086215
 F     -5.3535457363     0.7429031697    -3.4864199711
 H     -7.9741847260     3.6443334784    -3.4696667356
 F     -7.5138762246     2.8518647596    -3.4380690577
 H     -4.6146908152     3.3734900482    -5.6084446409
 F     -5.2454947897     4.0233338729    -5.4646449568
 H     -5.8276013224     4.0734749031    -1.7546931792
 F     -6.2402975557     4.8701752547    -1.5653802935
 H     -6.4049812490     0.7001701526    -6.1982699245
 F     -5.6099264011     0.4707890319    -6.5934421532
 H     -5.0677074614     2.1107309300    -2.5628020136
 F     -4.7492544443     2.8494326994    -2.1225789204
          32
Energy: -131.4597744509898 Kcal/mole
 H     -4.3180303985     1.3669840583    -6.1536410212
 F     -3.7083808648     1.9681007211    -5.8251974133
 H     -7.6446076570     1.9324073322    -4.7593651214
 F     -7.7038495723     1.4462115037    -5.5346025120
 H     -4.7686600590     5.3863170324    -4.5326931999
 F     -4.7402296209     6.0864698395    -3.9411978433
 H     -1.7442501239     2.5794246040    -3.8473361354
 F     -1.3957827808     1.7535462959    -3.6539853377
 H     -2.3805992192     0.4147912962    -3.7599084733
 F     -3.0103258887    -0.2515773210    -3.7429913931
 H     -8.2344721232     5.8688810756    -3.4497810987
 F     -8.7534006319     5.1145318754    -3.5003724714
 H     -6.2435253499     6.8205358657    -3.7083302430
 F     -7.1110959153     7.0737053900    -3.5530385624
 H     -5.0377967952     5.9145119058    -1.0611880719
 F     -4.2720829897     6.3909414330    -0.8950969110
 H     -2.9043657860     5.9619577503    -1.6917719863
 F     -2.1567118983     5.6617686599    -2.1297093954
 H     -2.3264900063     4.6873631003    -3.4433265461
 F     -2.4558122897     4.0801849580    -4.1182335400
 H     -4.5675381270     0.2996213221    -3.6122722656
 F     -5.3584770452     0.7500462213    -3.5008180692
 H     -7.9543923668     3.6704085122    -3.3922555775
 F     -7.4685318976     2.8930743455    -3.4163428741
 H     -4.5124004554     3.4361545293    -5.6291035123
 F     -5.1154766142     4.1205606476    -5.5354210059
 H     -5.8321886576     4.0696966534    -1.7458444217
 F     -6.2383976587     4.8669749061    -1.5452686626
 H     -6.3692596248     0.6947203112    -6.2358354741
 F     -5.5686708932     0.4165070851    -6.5858984451
 H     -5.0599179889     2.1122214567    -2.5895183015
 F     -4.7540257021     2.8515536610    -2.1415151758
          32
Energy: -131.39704504002725 Kcal/mole
 H     -4.3104465262     1.3416455073    -6.1376296802
 F     -3.7236013462     1.9747602753    -5.8283281684
 H     -7.6538775245     1.9206743240    -4.7638319115
 F     -7.7192005568     1.3821980284    -5.5032000069
 H     -4.7821551686     5.3977200680    -4.5202565653
 F     -4.7561221285     6.0911126929    -3.9207418044
 H     -1.7316802372     2.5801373248    -3.8308470851
 F     -1.3869782807     1.7649768426    -3.5908826096
 H     -2.3782582970     0.4246814557    -3.7346307383
 F     -3.0202398622    -0.2299852789    -3.7472852459
 H     -8.2180568136     5.8685452016    -3.3857940258
 F     -8.7497159800     5.1214823834    -3.3969598852
 H     -6.2357279948     6.8171226411    -3.6866534870
 F     -7.1044339696     7.0739880813    -3.5443191096
 H     -5.0340277031     5.9050848194    -1.0508578690
 F     -4.2722829314     6.3914415182    -0.8956449044
 H     -2.8736158341     5.9569138595    -1.6777877624
 F     -2.1295391967     5.6175678539    -2.0926169394
 H     -2.3518748952     4.6763996022    -3.4293480700
 F     -2.4544656800     4.0807665462    -4.1189750659
 H     -4.5606601142     0.3102030473    -3.6052405502
 F     -5.3588419079     0.7494848853    -3.5011910854
 H     -7.9681062005     3.6664511157    -3.3595269881
 F     -7.4845618539     2.8886671214    -3.4056347223
 H     -4.5301143960     3.4153988840    -5.6413073053
 F     -5.1311899219     4.0945348451    -5.5057655833
 H     -5.8472112954     4.0724398845    -1.7433101786
 F     -6.2605484488     4.8633424058    -1.5323253463
 H     -6.3691519344     0.6288072033    -6.1942318656
 F     -5.5686058904     0.3757641646    -6.5629922919
 H     -5.0819026948     2.1079119465    -2.5555217982
 F     -4.7632660644     2.8235914138    -2.0789060222
          32
Energy: -131.4713108125138 Kcal/mole
 H     -4.3393622830     1.3642420747    -6.1393770716
 F     -3.7498244284     1.9743987221    -5.7914647498
 H     -7.6574062933     1.8634075606    -4.7208312884
 F     -7.7177650732     1.3541545506    -5.4810333599
 H     -4.7719440380     5.3590403299    -4.5195344391
 F     -4.7229122778     6.0593060084    -3.9295235358
 H     -1.7228475710     2.5626401124    -3.9217405635
 F     -1.3825547664     1.7295500453    -3.7455283412
 H     -2.3709547503     0.4053615087    -3.8228304729
 F     -3.0158433793    -0.2458812022    -3.7929877584
 H     -8.1890455597     5.8494992973    -3.4671115219
 F     -8.7229367450     5.1040503338    -3.4795632281
 H     -6.2072045603     6.8256045213    -3.7291222697
 F     -7.0798414143     7.0802354741    -3.6084698809
 H     -5.0024257229     5.9243508810    -1.0775041039
 F     -4.2464702122     6.4094983369    -0.8929716901
 H     -2.8281903298     5.9746895012    -1.6515989851
 F     -2.0981767940     5.6296802767    -2.0862688284
 H     -2.3076221652     4.6407171737    -3.4007002253
 F     -2.4104774032     4.0765880913    -4.1162896176
 H     -4.5595629205     0.3297903690    -3.6142148025
 F     -5.3536514234     0.7764614830    -3.5103044306
 H     -7.9485008905     3.6538103389    -3.3896628271
 F     -7.4717447372     2.8704939054    -3.3924797957
 H     -4.5670100958     3.4304435257    -5.6077429021
 F     -5.1850848653     4.0930437907    -5.4669115555
 H     -5.8273376768     4.0747465737    -1.7422097626
 F     -6.2145040826     4.8825135445    -1.5459861784
 H     -6.3823204644     0.6617131911    -6.1874193094
 F     -5.5968409823     0.4117810473    -6.5892213835
 H     -5.0793726181     2.1238842036    -2.5942721405
 F     -4.7362034118     2.8427692680    -2.1400385441
          32
Energy: -131.49855605866628 Kcal/mole
 H     -4.3423524335     1.3870824534    -6.1313552938
 F     -3.7307406633     2.0042861305    -5.8383029718
 H     -7.6661928615     1.8410951996    -4.7175955746
 F     -7.7285159784     1.3801499875    -5.5078704259
 H     -4.7569768514     5.3578570400    -4.4976195929
 F     -4.7099464005     6.0458521858    -3.8931861259
 H     -1.7238351632     2.5869764287    -3.8717274198
 F     -1.3965317299     1.7453767963    -3.7121294205
 H     -2.3934165708     0.4147449882    -3.8122910592
 F     -3.0379447434    -0.2369741648    -3.7851879154
 H     -8.1934501089     5.8649139662    -3.4948697423
 F     -8.7282144861     5.1200160353    -3.5014373465
 H     -6.1775171471     6.8013865005    -3.7302676380
 F     -7.0436509910     7.0863461060    -3.6328038622
 H     -5.0106705791     5.9169852386    -1.0184108008
 F     -4.2477708678     6.4031936146    -0.8684960067
 H     -2.8588909291     5.9435424059    -1.6570995000
 F     -2.1239359948     5.5918849732    -2.0778931485
 H     -2.3459494427     4.6549624424    -3.4037234329
 F     -2.4837659730     4.0622053138    -4.0896786723
 H     -4.5636165505     0.3211938328    -3.6075573123
 F     -5.3534363877     0.7769175094    -3.5106575950
 H     -7.9674293434     3.6599472912    -3.4001832866
 F     -7.4955755499     2.8737780770    -3.3867309919
 H     -4.5573588371     3.4360886882    -5.6017286890
 F     -5.1750136506     4.1010981496    -5.4707556096
 H     -5.8195670646     4.0757330656    -1.7065453386
 F     -6.2267593092     4.8630013757    -1.4714026506
 H     -6.3996309997     0.6722591023    -6.2083205995
 F     -5.5996530147     0.4047847248    -6.5680172508
 H     -5.0610617220     2.1507370023    -2.6172652349
 F     -4.7352779163     2.8793897203    -2.1658019158
          32
Energy: -131.4988619089898 Kcal/mole
 H     -4.3158989550     1.3739413221    -6.1562104137
 F     -3.7321439592     2.0049832372    -5.8369844651
 H     -7.6645580208     1.8426103179    -4.6804777663
 F     -7.7345990027     1.3607088711    -5.4574940187
 H     -4.7300585853     5.3311408209    -4.4918121786
 F     -4.6800769310     6.0189596797    -3.8874149155
 H     -1.7330153904     2.5772799554    -3.9004565400
 F     -1.3976061590     1.7412434795    -3.7288970502
 H     -2.4085388380     0.4444769213    -3.8633872300
 F     -3.0360838387    -0.2241594682    -3.8621024209
 H     -8.1846149706     5.8467635293    -3.5618642160
 F     -8.7140164485     5.0980413555    -3.5556850928
 H     -6.1774294973     6.7640291985    -3.7324372519
 F     -7.0407741846     7.0566219974    -3.6328661469
 H     -5.0220931587     5.9330788113    -1.0109123608
 F     -4.2471649263     6.4023398878    -0.8688937817
 H     -2.8580359447     5.9376391678    -1.6507675391
 F     -2.1239813498     5.5921981263    -2.0782290444
 H     -2.3293100599     4.6554904222    -3.4142930493
 F     -2.4438163677     4.0752164449    -4.1150493669
 H     -4.5809966022     0.3087912127    -3.6298200129
 F     -5.3612028619     0.7745204961    -3.5062747706
 H     -7.9366662031     3.6625502667    -3.4067844936
 F     -7.4429133820     2.8901898995    -3.3831918074
 H     -4.5650702377     3.4133219874    -5.6590983047
 F     -5.1644730103     4.0951066350    -5.5295799256
 H     -5.8051025734     4.0973991650    -1.7610033739
 F     -6.2258697259     4.8742225231    -1.5152606757
 H     -6.3797962612     0.6786914270    -6.1707429233
 F     -5.5975729365     0.4226475025    -6.5750413020
 H     -5.0698199832     2.1461328693    -2.6175629901
 F     -4.7436229258     2.8923993252    -2.1961714185
          32
Energy: -131.53807629921275 Kcal/mole
 H     -4.3292922818     1.3861037755    -6.1552197206
 F     -3.7314334741     2.0043380471    -5.8370370191
 H     -7.6337869190     1.8775217861    -4.7049922388
 F     -7.7237481842     1.3755404823    -5.4671016413
 H     -4.7219421828     5.3384382825    -4.5006167557
 F     -4.6805074874     6.0185725662    -3.8869478530
 H     -1.7054899677     2.5905559265    -3.8991978237
 F     -1.3740397351     1.7539788713    -3.7226515863
 H     -2.3857166349     0.4479737105    -3.7983176520
 F     -3.0103472112    -0.2217726812    -3.7517836442
 H     -8.1921101979     5.8517672443    -3.5753373790
 F     -8.7136188440     5.0977759200    -3.5549703726
 H     -6.1522826087     6.7623285800    -3.7652271720
 F     -7.0219370105     7.0448172348    -3.6960145909
 H     -5.0095792396     5.9202632830    -1.0337298327
 F     -4.2478287608     6.4030197220    -0.8676833675
 H     -2.8693229516     5.9309037499    -1.6651755123
 F     -2.1233826001     5.5925554247    -2.0774647347
 H     -2.3044235871     4.6493408415    -3.4107703090
 F     -2.4006161052     4.0871702662    -4.1288234015
 H     -4.5347892285     0.3413919481    -3.6332780204
 F     -5.3285587673     0.7904684266    -3.5376263827
 H     -7.9366753805     3.6627458849    -3.3987451890
 F     -7.4429128951     2.8901795224    -3.3836182739
 H     -4.5511062456     3.4319705657    -5.6592492101
 F     -5.1544247652     4.1076312153    -5.5164960998
 H     -5.8029628769     4.1095803756    -1.7932854702
 F     -6.2259832318     4.8735763380    -1.5135481851
 H     -6.3961774002     0.6673666584    -6.2031070646
 F     -5.6003892273     0.4118754171    -6.5803793927
 H     -5.0320958543     2.1726666863    -2.6433118023
 F     -4.6991138715     2.9310083542    -2.2497004282
          32
Energy: -131.53028074586405 Kcal/mole
 H     -4.3412967371     1.3438434920    -6.0945288251
 F     -3.7390110335     1.9703254643    -5.8018493593
 H     -7.5996463524     1.8955915119    -4.6948242906
 F     -7.6892122828     1.4239267613    -5.4761048466
 H     -4.6987097754     5.3184426621    -4.4587037037
 F     -4.6714603992     6.0024316531    -3.8485352583
 H     -1.7033392866     2.5888838616    -3.9387447459
 F     -1.3615683172     1.7567900070    -3.7606958151
 H     -2.3706032867     0.4414358413    -3.7864578902
 F     -3.0097397252    -0.2138776486    -3.7320718347
 H     -8.1745369910     5.8407596963    -3.6026407375
 F     -8.7035140830     5.0921932855    -3.5757974019
 H     -6.1502867277     6.7754241400    -3.7675791389
 F     -7.0258283873     7.0465480092    -3.7391599572
 H     -5.0219860327     5.9024809172    -1.0103850124
 F     -4.2473072901     6.3524578159    -0.8147255214
 H     -2.8511973768     5.9137117382    -1.6260663293
 F     -2.1250633751     5.5682085693    -2.0667997770
 H     -2.3127822881     4.6553494173    -3.4335878913
 F     -2.3939014504     4.0937056495    -4.1539107076
 H     -4.5453231940     0.3521267450    -3.5845062745
 F     -5.3330429515     0.8117166206    -3.4887789023
 H     -7.9052460348     3.6735102143    -3.3871353738
 F     -7.4138818153     2.8995876674    -3.3649071227
 H     -4.5334766337     3.3841374807    -5.6159919936
 F     -5.1272173778     4.0674251774    -5.4694353416
 H     -5.7611085086     4.1009258807    -1.7441287852
 F     -6.2138124686     4.8608306647    -1.5022758467
 H     -6.3753947449     0.6677215113    -6.1444764458
 F     -5.5897156670     0.3690609176    -6.5110814600
 H     -5.0325884717     2.1785988513    -2.5993722487
 F     -4.6803635089     2.9187202333    -2.1882190954
          32
Energy: -131.53750279116073 Kcal/mole
 H     -4.3232430698     1.3433542569    -6.1280275344
 F     -3.7399687389     1.9703514171    -5.8000723302
 H     -7.6014616501     1.9354668323    -4.7201968435
 F     -7.6891159855     1.4218114676    -5.4747588913
 H     -4.7175799026     5.2971073183    -4.4196314066
 F     -4.6939522060     5.9724667681    -3.7997763061
 H     -1.7005241921     2.6065273463    -3.9438941853
 F     -1.3715066687     1.7722329065    -3.7526109998
 H     -2.3718668395     0.4199564395    -3.7474894286
 F     -3.0030450745    -0.2416214097    -3.6780791619
 H     -8.1816749637     5.8546174054    -3.5346284816
 F     -8.7241349836     5.1153699624    -3.5228240428
 H     -6.1607343626     6.7776425948    -3.6778286911
 F     -7.0294610118     7.0650606828    -3.6178799488
 H     -4.9994859134     5.8512090723    -0.9579269625
 F     -4.2308836845     6.3131454079    -0.7662124990
 H     -2.8592629881     5.8811384506    -1.6155212869
 F     -2.1355496821     5.5684106439    -2.0838474229
 H     -2.3326357674     4.6560097588    -3.4410531162
 F     -2.4199989292     4.0937135686    -4.1601356376
 H     -4.5395502280     0.3230105631    -3.5237922953
 F     -5.3327597585     0.7707405412    -3.4177474587
 H     -7.9009963596     3.6885699964    -3.3799998558
 F     -7.4046792126     2.9174971241    -3.3822168584
 H     -4.5588426860     3.3988458929    -5.6021795208
 F     -5.1529679730     4.0846661584    -5.4696853445
 H     -5.8024534145     4.0940366190    -1.7439758081
 F     -6.2148639362     4.8606812436    -1.4557700115
 H     -6.3788371860     0.6537037389    -6.1407533557
 F     -5.5895330535     0.3698045281    -6.5112789613
 H     -4.9929622391     2.1599821409    -2.5973469978
 F     -4.6824655890     2.9197078068    -2.1883265303
          32
Energy: -131.55851096030588 Kcal/mole
 H     -4.3425317430     1.3386617693    -6.1068081679
 F     -3.7601188175     1.9660784207    -5.7781251447
 H     -7.6139529644     1.9019604273    -4.7016269624
 F     -7.7084030272     1.3860364266    -5.4538175042
 H     -4.7065666192     5.3421543410    -4.4635960273
 F     -4.6550002239     6.0217323375    -3.8500785838
 H     -1.7012123834     2.5699491108    -3.9148789719
 F     -1.3711058877     1.7391028771    -3.7108857433
 H     -2.3719253905     0.3998451311    -3.6884079726
 F     -3.0215605093    -0.2464170902    -3.6536465893
 H     -8.1746354169     5.8831186624    -3.4899123210
 F     -8.7153891690     5.1426906563    -3.4743962855
 H     -6.1418285503     6.7638749495    -3.6919447651
 F     -7.0088441624     7.0521862235    -3.6141659911
 H     -5.0116894662     5.8754959260    -0.9653409900
 F     -4.2302363142     6.3118570465    -0.7658192019
 H     -2.8500545810     5.8511510711    -1.5920722541
 F     -2.1252547634     5.5154927333    -2.0425028312
 H     -2.3220782651     4.6090317898    -3.4102629170
 F     -2.4022997876     4.0672401664    -4.1457323890
 H     -4.5437496245     0.3131199667    -3.5122047002
 F     -5.3325369902     0.7712652145    -3.4183621538
 H     -7.9192528353     3.7073647428    -3.4014012872
 F     -7.4180785232     2.9394549557    -3.4066802823
 H     -4.5459527582     3.4151037699    -5.6201172486
 F     -5.1380765696     4.1045471159    -5.4978623321
 H     -5.7970363115     4.0984325742    -1.7309857084
 F     -6.2087260830     4.8774956037    -1.4770933530
 H     -6.3737713165     0.6506163978    -6.1512128439
 F     -5.5861387720     0.3739085143    -6.5306291352
 H     -5.0138335545     2.1585910026    -2.5778674677
 F     -4.6813584140     2.9197816035    -2.1893598743
          32
Energy: -131.516733608406 Kcal/mole
 H     -4.3775303060     1.3465759023    -6.0832882159
 F     -3.7630532635     1.9673093968    -5.8040089773
 H     -7.6437947052     1.8394074781    -4.6666485854
 F     -7.7490995789     1.2954998241    -5.3973772269
 H     -4.6943870284     5.3593127485    -4.4829250592
 F     -4.6556463230     6.0208221237    -3.8490532233
 H     -1.7140521488     2.5586503186    -3.9413818224
 F     -1.3723805331     1.7229957254    -3.7806618552
 H     -2.4025345911     0.4333404372    -3.8194018282
 F     -3.0444132423    -0.2181398402    -3.7526616960
 H     -8.1723868183     5.8694876989    -3.4811710469
 F     -8.7101343704     5.1270593559    -3.4584394482
 H     -6.1308632747     6.7798468745    -3.6590405981
 F     -7.0059753129     7.0478435335    -3.6020694543
 H     -5.0104131205     5.8937869396    -0.9736622930
 F     -4.2423491971     6.3630826370    -0.7983672332
 H     -2.8904773173     5.7980817165    -1.5446364500
 F     -2.1676511075     5.4158245158    -1.9597156026
 H     -2.3486114202     4.5968773420    -3.3941428405
 F     -2.4172099297     4.0662178394    -4.1388466318
 H     -4.5670164286     0.3189699306    -3.5509634346
 F     -5.3535294108     0.7637681080    -3.3946275459
 H     -7.8901793832     3.7069967020    -3.3963458776
 F     -7.3892206521     2.9389983785    -3.4067345638
 H     -4.5433082095     3.4134381784    -5.6309731617
 F     -5.1167913839     4.1224992060    -5.5348560044
 H     -5.7837424509     4.1047915229    -1.7284784409
 F     -6.2094312916     4.8771582761    -1.4772263577
 H     -6.4162073163     0.5970070894    -6.1103541283
 F     -5.6097956340     0.3393386827    -6.4627689279
 H     -5.0153637510     2.1560434633    -2.5714997291
 F     -4.6812772406     2.9199167445    -2.1896976681
          32
Energy: -131.5490282622395 Kcal/mole
 H     -4.3536210740     1.3244944517    -6.0848137029
 F     -3.7643215930     1.9684807667    -5.8039280537
 H     -7.6789077008     1.7692438072    -4.6148151956
 F     -7.7620848298     1.2296587152    -5.3515773646
 H     -4.7064323321     5.3329082973    -4.4531995585
 F     -4.6550073475     6.0222228188    -3.8506300924
 H     -1.7522089689     2.5570406363    -3.9964556070
 F     -1.4139409463     1.7248848806    -3.8121174850
 H     -2.4110116303     0.3965472042    -3.8719395556
 F     -3.0466349537    -0.2634142020    -3.8355674078
 H     -8.1694257500     5.8673394869    -3.4809739428
 F     -8.7102914483     5.1271733136    -3.4584499042
 H     -6.1318028751     6.7923714469    -3.6882902289
 F     -7.0066623002     7.0564879805    -3.6124453676
 H     -4.9672205706     5.8668422309    -0.9767256139
 F     -4.1988137710     6.3401273606    -0.8141181838
 H     -2.8245398540     5.8827541553    -1.6589026156