          3
Energy: -0.9509993156813842 Kcal/mole
 Kr    -2.5129100203    -1.3764254578    -3.9270174016
 Kr    -2.3450868844    -4.4193723568    -6.6212905440
 Kr    -5.4892706347    -1.8397417825    -6.6619811359
