          3
Energy: -0.9509948597309299 Kcal/mole
 Kr     6.9810850173     3.1328537427    -0.7447743516
 Kr     4.8234186565    -0.0381992588    -2.1071602383
 Kr     2.9185635317     3.2128834565    -0.5724138689
