          3
Energy: -0.27154132276983506 Kcal/mole
 Kr     5.6150691400    -1.1687991154     4.9469052973
 Kr     3.8351974101     1.8371190993     2.2172901833
 Kr     3.2774312243     1.4676328662    -6.7966260833
          3
Energy: -0.10421321300853131 Kcal/mole
 Kr     0.9856780512    -6.7841969349     3.3917863456
 Kr     1.1745267948     6.6716205137     5.9048146719
 Kr    -0.8465199027     1.6386925360     6.5478056855
          3
Energy: -0.027027034542376087 Kcal/mole
 Kr     3.9107619982     1.7978380174     0.2648917366
 Kr     1.6690264504    -6.7674755756    -1.6625162298
 Kr     6.1121617353     0.7311283051    -6.5909306576
          3
Energy: -0.03553123239993739 Kcal/mole
 Kr     5.9267752882     2.2701115921     4.0986975118
 Kr     7.2984774947     3.1725951186    -2.3248450199
 Kr    -3.2131303119     7.4521793531     0.2434778050
          3
Energy: -0.3201903697568882 Kcal/mole
 Kr     4.9301689215     3.7498910131     3.0954073046
 Kr    -0.4555006577    -2.6604664934    -3.2250203893
 Kr     2.7342679540    -1.2313454008    -5.2043978327
          3
Energy: -0.3227029723582353 Kcal/mole
 Kr    -3.0536355247     6.2171420136    -0.7314344120
 Kr    -3.0389559744    -2.5913771833    -4.3444966130
 Kr    -4.3212635618     4.2733881760    -3.8808025846
          3
Energy: -0.21877739978617747 Kcal/mole
 Kr    -3.4305518104     1.9091224101    -7.3226195122
 Kr    -2.7234996219     3.7595806986    -3.0039235168
 Kr    -5.9626744406     5.9164049175     3.3018093802
          3
Energy: -0.917909218241711 Kcal/mole
 Kr    -0.4087928597     4.8159160352    -2.7331713992
 Kr     1.5501078575     4.9373521950    -6.3897279112
 Kr    -2.7212729281     5.4607544615    -6.0551630460
          3
Energy: -0.9248876727213206 Kcal/mole
 Kr     6.7134503952     3.4989953602    -1.2167014111
 Kr     4.8423585052     0.0442570100    -2.3743202617
 Kr     2.5584748618     3.3271888306    -0.8919595102
          3
Energy: -0.9509948597309299 Kcal/mole
 Kr     6.9810850173     3.1328537427    -0.7447743516
 Kr     4.8234186565    -0.0381992588    -2.1071602383
 Kr     2.9185635317     3.2128834565    -0.5724138689
