          3
Energy: -0.014042063459158698 Kcal/mole
 Kr    -4.3045567744     1.9113146009     2.8411402026
 Kr     3.7696597799     2.0138428833    -0.2500270212
 Kr    -3.1021687668    -4.9878873661    -3.1359711904
