          3
Energy: -0.9509990254622523 Kcal/mole
 Kr     5.0381613878     3.3145076833    -3.8115906735
 Kr     2.3771551255     3.5290257751    -0.7416591110
 Kr     5.9875486600     5.3763047844    -0.4367887103
