          3
Energy: -0.9509963230015628 Kcal/mole
 Kr    -6.5768737386    -5.9182129109    -3.8598655335
 Kr    -3.1757517409    -7.1365411486    -5.7337995275
 Kr    -4.8577418098    -3.5574424321    -6.6907867370
