          6
Energy: -0.24591116790359255 Kcal/mole
 He     2.9719773739    -3.6421970183    -2.2915881177
 He     0.9398431771    -5.6394435961    -1.8132700720
 He     3.6471918446    -6.1126292545    -1.0299957945
 He     0.3310070906    -2.8570371749    -1.4754945307
 He     1.4645186913    -6.9366803521     0.6597893635
 He     2.0822913153    -4.1650138632     0.3830713047
