          6
Energy: -0.0048367866155251075 Kcal/mole
 He    -7.3030941442     5.9874462821    -0.0706239118
 He    -0.2512802040     2.7917966503    -6.0508074010
 He    -2.2488495156    -5.9764896625    -1.1304867816
 He    -3.1619597022     3.4676674316    -3.0009503175
 He     7.4007777280     6.0031598939    -1.6274166484
 He    -1.1895013810     7.4703364990     2.1869702971
          6
Energy: -0.005673741255655961 Kcal/mole
 He     5.6039880881    -1.9501977659    -6.7655029543
 He    -3.3099691186    -5.8356900490    -3.8598028603
 He     2.3043273827    -6.5495222058     5.0025895799
 He    -1.3681883886     1.0426955559     1.1950266805
 He    -3.9192637045    -2.3990917860    -1.4017169849
 He     0.3080674167     6.1856749513     3.3433483361
          6
Energy: -0.0011428320979022118 Kcal/mole
 He     3.0152136362     6.4504220225    -6.8931665181
 He     5.3518518759     7.0601658821     1.2991514425
 He    -6.4503740359     2.8395657000    -1.0927007038
 He    -4.0471959267    -0.9787306848     2.0127247912
 He     0.3955510476    -4.4291383169    -4.5475167842
 He     1.0278863824     3.6348674657     7.0750440866
          6
Energy: -0.011577321754858382 Kcal/mole
 He     6.2137494131     7.0933452977     2.5761165517
 He     4.6868473958     0.3586216090    -6.2570709485
 He    -3.9349512484     0.2661199897    -7.2757644118
 He    -0.5186806823     1.6722977192     5.9750686597
 He     4.5241819075    -2.9241137801     1.9104499383
 He     5.4417086086     4.4731429757     0.4687696986
          6
Energy: -0.0047148968604059345 Kcal/mole
 He    -1.4073536621     5.6571586994     3.2323801995
 He     2.6915730797     6.0485166742     2.2458068937
 He     7.3942305584     3.7955020042     6.6080271792
 He     0.0953881028     0.3093584884    -0.7156969527
 He    -0.2040804442    -6.6620550209    -1.1369207661
 He     5.3946763991    -3.7232360184     7.4320669539
          6
Energy: -0.02012355377570588 Kcal/mole
 He     4.3143058918    -1.2512884542     7.3419551252
 He    -1.2727317773    -3.1569671304    -2.0609845270
 He     3.5288507909     1.8718471960    -3.2511150454
 He     3.2597003319    -4.0703819739     5.3033357044
 He     4.2025240039     2.4804232483     0.0888062181
 He    -3.5050529437    -0.7603993770     6.5034750257
          6
Energy: -0.009677755166766272 Kcal/mole
 He     0.5908082059    -6.5341605094     1.9993512020
 He    -0.2559264685     5.1056058610    -1.8579559329
 He    -2.9095262184     3.4816892451    -4.0189364278
 He    -2.2047712770    -1.7893382844    -6.7900384907
 He     0.5172290083     6.0525807529    -6.9783937390
 He    -6.7732988454    -3.0107645667     5.0236605560
          6
Energy: -0.010053556799557365 Kcal/mole
 He     6.6419199848    -5.5238452063     3.8244494610
 He     3.1924044772    -0.5915873425    -0.9030716162
 He     0.1704288017     0.7807651294    -2.9316776586
 He    -2.1561136214    -0.9679288174     5.8700945935
 He     4.7718968408    -7.4112185592     0.4873923536
 He    -3.6733345972     6.1654239896     2.0239176487
          6
Energy: -0.001929256436202942 Kcal/mole
 He    -5.8010945133     3.9381803848     6.3107910450
 He    -3.4220207474    -5.4664139009    -2.3942562474
 He     6.0975721874    -4.9797591889    -0.3091551878
 He    -6.1382746995     1.0355186579    -5.8568008045
 He    -0.5217814606    -7.3817236190     2.0785839591
 He     1.7443230770    -1.1547737187    -0.2986581066
          6
Energy: -0.24591116790359255 Kcal/mole
 He     2.9719773739    -3.6421970183    -2.2915881177
 He     0.9398431771    -5.6394435961    -1.8132700720
 He     3.6471918446    -6.1126292545    -1.0299957945
 He     0.3310070906    -2.8570371749    -1.4754945307
 He     1.4645186913    -6.9366803521     0.6597893635
 He     2.0822913153    -4.1650138632     0.3830713047
