          6
Energy: -0.12006609938938342 Kcal/mole
 He     4.0548879279     1.1682456774    -4.3623441992
 He    -4.6091987450    -2.4794638240     6.1401249648
 He    -5.0275234126    -0.5595955537     4.0511870506
 He     5.1750793401    -1.3314191746    -5.2061255981
 He     2.7213025779    -1.2873011173    -3.7295416954
 He    -2.3577421856    -1.3100096704     4.7927453708
