          4
Energy: -0.11999123825960684 Kcal/mole
 He     0.7369633906     1.0531248349    -2.5870580958
 He     3.5437815585     1.6546033686    -2.5617199833
 He     1.6398649650     3.7130672256    -3.1569646587
 He     1.8262425555     2.6711945385    -0.4917494927
