          4
Energy: -0.1199809575978166 Kcal/mole
 He     0.6867597517     1.8869614898    -1.9065954177
 He     0.1517862126     3.5005941053    -4.2075568795
 He    -1.9986754232     2.1516068629    -2.8778167732
 He    -0.0691061401     0.6410447315    -4.3653578284
