          4
Energy: -0.11997213911792082 Kcal/mole
 He     2.2785027277    -1.2376712160    -0.2260254194
 He     3.1158770113     0.7296057464    -2.1400331839
 He     3.5191247269    -2.0699410121    -2.6799016902
 He     0.8827659484    -0.9605860195    -2.7132812088
