          4
Energy: -6.208988342484792E-4 Kcal/mole
 He     0.7458618820     2.7451407939     7.0286946017
 He    -1.6639063788     1.3144772522    -4.8699180347
 He    -2.5837406843    -3.8207592762     0.5814697217
 He     3.0256397490     4.3952534557    -2.4528240068
          4
Energy: -0.01410022742505551 Kcal/mole
 He     6.3178518672     2.3352837901     1.8377505866
 He     5.7777287712     5.4662519276     0.7655081235
 He    -4.4553043398    -5.1912040263     5.4529744011
 He     7.4446682997     7.1097819733     5.4651229343
          4
Energy: -4.5543338731566624E-4 Kcal/mole
 He    -4.3196872591     4.3689697379     6.8793922520
 He     2.6244723665     6.2263814332    -0.4920016818
 He     2.3858927525     5.4265274973     6.5977460104
 He    -4.5774902951     0.3099439640    -3.3808873981
          4
Energy: -0.0124574274624714 Kcal/mole
 He    -2.5256186146     0.9720737671    -4.3311174471
 He    -3.3825427895     3.6251926159    -0.6335061645
 He    -1.9108053627    -3.0702663320    -7.0562309393
 He    -6.1043057432     0.2963401881    -3.4137371096
          4
Energy: -0.02363014975961084 Kcal/mole
 He    -0.9898132837     0.9477509835    -2.0986931146
 He    -0.6423127972     4.8611764161     3.0109595936
 He    -0.4414519247     2.0285555971     1.6012923092
 He    -2.1674241222    -2.8221014852     2.7426724843
          4
Energy: -0.005090624308135285 Kcal/mole
 He     6.8162557518     5.5212962030    -1.4190463227
 He     7.0791720600     4.4884744024     4.4941502200
 He     7.0494018121     0.4877596837     5.3386821068
 He     1.8922672559    -1.0694575790    -4.4391975606
          4
Energy: -1.9382266212907833E-4 Kcal/mole
 He    -3.4371200332     1.0987441942     4.1908608448
 He     1.5866359072    -2.1502987882    -5.7381629314
 He    -6.1275491394     1.4601515679    -4.5338481875
 He    -6.7451118006    -6.8740802542    -2.7622369419
          4
Energy: -0.08794817809969724 Kcal/mole
 He     3.9705004941     2.3187908562    -0.0372653585
 He     3.9771527994     1.7634720286    -3.4729675002
 He     3.1697517777     4.7103736333    -1.9973301754
 He     1.8210779103     1.5053970939    -1.6907487657
          4
Energy: -0.10850372017738347 Kcal/mole
 He     0.7535536520     1.0005829815    -2.4067071627
 He     3.6016747985     1.6978555444    -2.6099511706
 He     1.5192781026     3.9160471738    -3.2641437946
 He     2.0003106440     2.5534392353    -0.4404357622
          4
Energy: -0.11999123825960684 Kcal/mole
 He     0.7369633906     1.0531248349    -2.5870580958
 He     3.5437815585     1.6546033686    -2.5617199833
 He     1.6398649650     3.7130672256    -3.1569646587
 He     1.8262425555     2.6711945385    -0.4917494927
