          4
Energy: -0.11996137100138415 Kcal/mole
 He    -2.4003087955     4.4302685404     2.4767893118
 He    -2.7874919431     1.7150678235     3.3085595447
 He    -0.3696457455     2.4540572126     1.9692161247
 He    -2.8427890487     2.3986546171     0.5231580525
