          4
Energy: -0.0018343788714273892 Kcal/mole
 He    -2.5100954221    -2.3543469842    -2.0028681299
 He     0.7262206576     2.7126259609     0.1830232878
 He     4.8403981281     0.6770322646     2.9469686927
 He     2.5057892152    -4.9742949662     3.6698571410
