          3
Energy: -0.20699965658576927 Kcal/mole
 Ne    -1.6983101409     2.8651195439     0.4403219830
 Ne    -1.3595348459     5.1641067304     2.5218844612
 Ne    -1.1558506949     2.1879664836     3.4386375585
