          3
Energy: -0.20699894862619422 Kcal/mole
 Ne    -1.1537604522     2.0882630561     1.7331700242
 Ne    -3.2903050277     4.3046888071     1.2261416624
 Ne    -2.3716579884     2.4548003636    -1.1151434056
