          3
Energy: -0.20699888965379887 Kcal/mole
 Ne    -1.9852628779     5.5482762735     1.1695503766
 Ne    -3.7960644661     3.4943494772    -0.3238854771
 Ne    -4.3622488066     4.1906896282     2.6660487806
