          3
Energy: -5.04852917915973E-4 Kcal/mole
 Ne     3.7547093255     6.1471720195    -4.5152702674
 Ne    -7.3334664791    -1.0232066567     4.6478240844
 Ne     5.4953116826    -1.1295148093    -7.2857013449
          3
Energy: -9.587720816766746E-4 Kcal/mole
 Ne    -2.1591388689     4.3044588467     3.5365758889
 Ne    -4.7627381971     3.5319239430    -4.3093936760
 Ne    -5.2704127574    -3.6911442191    -0.1866069597
          3
Energy: -0.0057697019967326265 Kcal/mole
 Ne     3.7262208086     5.0890823411     3.3034730026
 Ne     2.6380981739    -6.4895748041    -6.0486496738
 Ne     4.9588979779     0.6219192679     0.7347225571
          3
Energy: -0.0013796426311315853 Kcal/mole
 Ne    -4.8566114213     0.5333522215     5.9342892869
 Ne     5.0867867261    -7.0799133715     7.1872632078
 Ne    -5.5206238200     3.3440123646    -0.1656555293
          3
Energy: -3.396579759486931E-4 Kcal/mole
 Ne    -6.0744296333    -4.9471344743    -6.8970934698
 Ne     0.7565031480    -1.5367107757    -2.1212997411
 Ne     6.4427159293     4.3528651940     4.3532146780
          3
Energy: -0.009475982231339134 Kcal/mole
 Ne     1.4784619187     2.2389006438    -0.0925005035
 Ne     0.4283769195     4.7269480376    -4.1507477345
 Ne    -5.4126003170    -1.5120249602    -7.3315046528
          3
Energy: -0.06806893965420711 Kcal/mole
 Ne    -7.3127660635    -1.0593613004    -4.5428437427
 Ne     6.8935701718    -0.5109348493     0.3357575174
 Ne     6.6041706323     1.8314425623     2.2884712675
          3
Energy: -0.01212609544198059 Kcal/mole
 Ne     1.5047386810     4.5351303409     2.8462907570
 Ne     3.9779366193     3.8061035212     6.7129796708
 Ne    -1.8101047557    -0.5706878227    -6.9915987335
          3
Energy: -0.06931601203117022 Kcal/mole
 Ne    -1.6555375233     1.8424952579     0.5081954313
 Ne     3.9075488472     2.8699386984     6.8295239054
 Ne    -2.4887436336    -0.5444780317     2.4037645989
          3
Energy: -0.20699965658576927 Kcal/mole
 Ne    -1.6983101409     2.8651195439     0.4403219830
 Ne    -1.3595348459     5.1641067304     2.5218844612
 Ne    -1.1558506949     2.1879664836     3.4386375585
