          3
Energy: -6.509405775346391E-4 Kcal/mole
 Ne    -3.0666264236    -2.5732228177     4.3267414408
 Ne     4.6588399163    -4.2425805677     3.8427436955
 Ne     2.8943841929     2.6327327560    -4.1969691164
