          3
Energy: -0.20699759907210996 Kcal/mole
 Ne    -2.5818873730    -1.5537648118    -4.3653087627
 Ne    -5.6284471979    -0.9522659666    -4.0592388926
 Ne    -4.6174038647    -2.7569828776    -6.3988547691
