          6
Energy: -6.630977169782879E-4 Kcal/mole
 Xe    23.9272030895    -9.8631602802   -21.9395717511
 Xe    -5.3569362442    -8.0241490402     6.4392623587
 Xe   -12.4253229795    -2.8721918256    -5.6970694229
 Xe   -16.4646669502    16.7621527342    12.8838803517
 Xe    13.7324987360    16.2158642772     7.6751587655
 Xe    10.8203140298   -10.9773780135    24.8836786094
          6
Energy: -0.007201255742876719 Kcal/mole
 Xe    17.7470173520    -8.6568787418     5.3212712571
 Xe    26.1064002871   -16.1322857289    24.8450845099
 Xe     9.3327933518    -6.6385155013     0.5542972831
 Xe     2.7413371645   -12.0925975172    19.8199738381
 Xe    -1.0037663584    11.8651775804    10.7497613807
 Xe   -26.0978016896   -24.6751404948    -0.0915956429
          6
Energy: -1.0886530354121246E-4 Kcal/mole
 Xe   -20.4923799695    25.3675155343     0.5235798971
 Xe    -3.9393165708   -25.7107639918    22.9447178369
 Xe    11.5427510512   -15.1839258843     1.0325196203
 Xe    10.7133054092    -0.5025092530    19.8980791393
 Xe    21.4835841537    24.6637654291     9.9524275729
 Xe   -10.4632802308    -0.5454402914    -4.1163929556
          6
Energy: -0.4394552458949157 Kcal/mole
 Xe   -20.2216643653     5.5765734901    -0.4934503734
 Xe   -15.8821347015     6.5182632917     0.5555183382
 Xe   -16.1185078644    -1.3036120683    14.2223420580
 Xe    13.6412242664    22.9913124374    -4.1621146095
 Xe    21.9149373043    22.4985572887    -4.7767219692
 Xe    22.6163592173    -5.3153795423    -1.0302835702
          6
Energy: -1.25410366417992 Kcal/mole
 Xe     3.9593076950    13.7085076672     9.5361457157
 Xe   -11.9147378005    -2.9824131760    -9.8750054892
 Xe    23.9274109393    21.7132545977    -0.7304298824
 Xe    22.6431898464    18.4812957203     2.1214377632
 Xe    25.0577537899    17.2745986223    -1.5294655044
 Xe     3.3062479908   -23.4889126624     3.3672589518
          6
Energy: -1.8373833191559638E-4 Kcal/mole
 Xe    -9.2101113263    -1.9938511692    23.1559137625
 Xe   -10.0899386565   -25.9049527391   -17.0917668335
 Xe    23.7287934719    16.5088056756   -20.7034296112
 Xe    17.7727176644   -24.7242333744     7.2331396358
 Xe    18.6222435949     0.9444256317    -3.4093906974
 Xe   -22.2585822276    12.1440822577    24.5689560006
          6
Energy: -0.7526176975515646 Kcal/mole
 Xe   -21.3514067488    10.7659626365    14.3228134133
 Xe   -20.9382581531   -17.5397196595    -6.5207367695
 Xe    22.1723174568     1.1497063700    -2.7552637703
 Xe    14.3890712671   -12.3090887544    22.0695443596
 Xe    21.1214770961     1.3110508142    -7.5610612002
 Xe   -19.4473135068    14.9080919294    14.0240564783
          6
Energy: -0.412069249931698 Kcal/mole
 Xe   -23.8418272202    -7.0664163678    11.6972842215
 Xe     3.0016982683    15.4711219306   -25.6301306773
 Xe     9.3274087290    11.1213279475     7.9753782890
 Xe    -2.6863959746   -21.0031714822    -3.8209561626
 Xe     5.9581150220    14.1091587025     8.9429866955
 Xe    -3.1659366617    16.8967492790    22.0910388148
          6
Energy: -1.7253468470739666 Kcal/mole
 Xe   -16.3498841519   -21.4647482323    24.4116133673
 Xe     6.1609632887    -9.9157474617   -14.3325500720
 Xe    12.2710528090    12.3355281965    14.4643696895
 Xe     5.7760444525   -10.3168672908   -18.6873392819
 Xe     8.5416094328    13.1528625387    12.1419552842
 Xe     8.4320717396    10.3744586545    15.4876797829
          6
Energy: -3.0308093720874116 Kcal/mole
 Xe     7.4130275996     6.7618235212    15.2334866217
 Xe     5.2946258817    -9.5470572388   -13.3759971786
 Xe    10.5264877689     8.8012986226    12.8421058625
 Xe     2.8223749700   -10.6082360350   -16.8787007194
 Xe     6.4422175693    10.4938925121    13.0890940720
 Xe     9.0961387523    10.6134108204    16.6093177583
