          6
Energy: -3.0308093720874116 Kcal/mole
 Xe     7.4130275996     6.7618235212    15.2334866217
 Xe     5.2946258817    -9.5470572388   -13.3759971786
 Xe    10.5264877689     8.8012986226    12.8421058625
 Xe     2.8223749700   -10.6082360350   -16.8787007194
 Xe     6.4422175693    10.4938925121    13.0890940720
 Xe     9.0961387523    10.6134108204    16.6093177583
