          6
Energy: -0.019194305031680545 Kcal/mole
 Xe   -21.6763130040    14.6086904307    -1.7874726229
 Xe     1.4613879766    -6.2827710064   -14.3777117498
 Xe    18.7324878552   -13.2229847984    12.9685444883
 Xe    26.0127882922   -11.0975902390    16.7896910650
 Xe   -14.9598409441    18.6851978887    14.0051379850
 Xe    11.8491069053     0.0064130566   -13.6507710691
          6
Energy: -8.581893363687279E-4 Kcal/mole
 Xe   -17.1813254431    22.4994060824   -12.9451738775
 Xe   -24.3112264505    -7.0565665658   -11.7238411042
 Xe    11.9094104671   -23.7253214139   -12.5444770001
 Xe     0.8961703332   -21.8727909376    -3.5693162153
 Xe     6.1287389250   -18.1568843699    24.2450477016
 Xe    -6.8538416150     8.8408307978     1.0618112826
          6
Energy: -0.13153874418118972 Kcal/mole
 Xe    18.8644661078   -11.4333449538     4.8945436155
 Xe   -25.9233141899   -19.2827452158   -12.2901161329
 Xe    -3.8557230675    -0.5480645384    25.3366498796
 Xe   -22.8517161511   -22.8822263287   -15.9773169800
 Xe    17.1516171644    -9.8156700604   -12.3130287625
 Xe    17.7084051208   -10.7203034869   -22.9513956597
          6
Energy: -0.004522951706731394 Kcal/mole
 Xe    -5.1880873145     1.8604183299     3.8793879073
 Xe   -11.0620276015    -6.7575232872    18.0396491743
 Xe   -14.9899209463    12.9618657300    19.4005823861
 Xe   -15.3583536292   -18.7580846622   -24.2880183837
 Xe   -20.8105433748     9.8170543839   -14.7526488872
 Xe   -21.9373965423   -22.2993665433   -16.5201763319
          6
Energy: -1.4232949250869424E-4 Kcal/mole
 Xe   -22.1365427277    23.5338113175     7.2649441160
 Xe    21.5476698440   -21.4207918757    22.6551430738
 Xe    -5.4526358004   -17.9840626286    12.6345068586
 Xe     8.4301820486     3.7326749918    21.4042372581
 Xe    10.0237839038     5.1150366957    -0.9575052973
 Xe   -18.5459330279   -10.2857908687    -6.6132328222
          6
Energy: -3.445643368806056E-4 Kcal/mole
 Xe    19.9634064815     2.3919767393     2.7731253994
 Xe   -17.5989983101    -8.1043651895    20.6552805810
 Xe    -2.6932263261    -9.7687723850   -19.4022309844
 Xe     0.1634986360    -7.1749996769    12.2228918285
 Xe    19.0854043141    25.6444708940    -3.6945516534
 Xe   -15.8187857839    -2.9120714394    -6.2720287540
          6
Energy: -2.1395908810376127 Kcal/mole
 Xe    10.9768459909   -13.8111387184    -1.9727596351
 Xe     8.2670560280   -12.8059519293    -6.4437619843
 Xe     8.8850265522    -9.7111392039    -3.4379135321
 Xe     5.2937225491    -5.3220301652     5.5755809582
 Xe    25.4139831084    16.1313352225   -16.1304194530
 Xe    12.3123883755   -10.9700110940    -6.1657484023
          6
Energy: -2.5273125452598184 Kcal/mole
 Xe    10.3931246477   -13.3510191194    -6.8871858605
 Xe     6.9342525778   -14.0397488776    -4.4985509653
 Xe    10.1126841829   -11.5293860825    -2.8903002277
 Xe    20.2902070173     8.0398130509    23.0375867755
 Xe   -12.7940471202    14.2119401314   -25.0731869763
 Xe     7.4665799042    -9.8800923654    -6.2284349019
          6
Energy: -2.501764752298103 Kcal/mole
 Xe     5.1017225059   -13.0006388086    -6.7802232818
 Xe     3.8501400646   -11.0385482891   -10.5875472317
 Xe     0.9567552706   -12.5337499729    -7.7547642558
 Xe    17.6742063409    20.9047176456    21.7720427269
 Xe    15.7266316191    24.8690641070     6.3462533343
 Xe     3.6208786753    -8.6953196894    -6.9046327815
          6
Energy: -3.0309430175205834 Kcal/mole
 Xe     5.1105717785   -12.9920750855    -6.7378861736
 Xe     4.0486939807   -11.0042430290   -10.5412238312
 Xe     0.8777493236   -12.1890143127    -7.7086724841
 Xe    17.8629964570    23.0188768958    18.5689052801
 Xe    14.8311596358    24.5659335439    15.7539603972
 Xe     3.5968010538    -8.8491159724    -6.7107405082
