          6
Energy: -0.3152380600769105 Kcal/mole
 Xe   -18.6341320989    -2.4821959991   -16.2642710769
 Xe    -4.4698327530    12.2961939396    22.9150840341
 Xe    26.0639204117    16.9039316208     5.9719934434
 Xe    -3.8534284838     0.1960513775    -6.0407764588
 Xe    11.8488766442     7.9887786215     9.5619728073
 Xe    -3.2594154393    -3.7254891493    -9.0810730491
          6
Energy: -0.04905737958526281 Kcal/mole
 Xe   -11.6254113570    22.1453344158     5.0394867543
 Xe    -5.9706160251    18.2266681110    14.7354708924
 Xe    21.0114983809     4.6273635322    16.4459418597
 Xe     6.6828908753     2.8568078939     9.9564159883
 Xe    -4.1444699424    22.9731105627     8.8491325459
 Xe    -3.3746009937   -19.0517557298    25.2724118843
          6
Energy: -0.023278284966294045 Kcal/mole
 Xe     0.8164414981    19.3005030593   -16.7855914537
 Xe   -10.2850734522    25.4318043157    25.5206670684
 Xe    22.6666103138    -7.9487487393     5.0850235604
 Xe    -6.7246647612   -10.7897242668     9.1272993180
 Xe    -2.1818774809    14.4764521664   -22.7232355656
 Xe    24.7832647834   -18.0755065445    10.3652823289
          6
Energy: -8.803474030635604E-4 Kcal/mole
 Xe    13.8805937389    24.0421256852   -25.0299679026
 Xe    -3.0010151111    15.6950134122    20.3034484819
 Xe    17.2982466323   -12.9572808830   -13.6647537055
 Xe     7.3182304849    25.3279225151    -2.4196534280
 Xe    12.8760700663    14.0434302619    16.1806339931
 Xe     9.3652656726   -13.3167860958    -0.1790922600
          6
Energy: -3.047818486085639E-4 Kcal/mole
 Xe   -19.7286790791    14.1183894365   -18.0317861477
 Xe     9.4657865244    -0.1596646804     7.5348704862
 Xe    23.4396924050    18.2956449463   -17.6837153537
 Xe    -6.7785514225    26.2421405143     1.3852648645
 Xe    10.3176085131    21.3075406544     6.1003593488
 Xe    21.4769972757   -11.8029150369   -15.3469741811
          6
Energy: -0.0019700006474044083 Kcal/mole
 Xe    19.3192543974   -22.1003506916    -6.7694041211
 Xe    11.2448983109   -20.5424474085    11.9559058255
 Xe     0.4491420418    16.6124176631   -11.5485283171
 Xe    -3.8310840485    19.9218228096     4.7513309024
 Xe   -20.6505788356    -9.3256341152    15.0190612121
 Xe    14.9619111409   -12.9991999000   -14.3313976625
          6
Energy: -0.8303183927705008 Kcal/mole
 Xe    14.6542706859   -17.1951154686     5.1710282097
 Xe    19.7524651371   -11.2388968206     4.8951264079
 Xe   -14.1701853401     0.0159093567    -1.0821528636
 Xe   -12.2443733212     3.0009385298     1.8337506538
 Xe    17.9852012126   -18.2730783231     1.8679986448
 Xe     3.6827411577   -14.4734069860   -23.4784911073
          6
Energy: -2.3563258522268558 Kcal/mole
 Xe    20.4480512079   -10.6473182841     6.2634446844
 Xe    23.5735696068   -13.6205375535     5.8317344696
 Xe     4.3417368552     0.2340638694     1.9235758745
 Xe     2.1031432248     4.3303733540     1.4585971997
 Xe    19.1794240401   -14.8228129815     5.1459301117
 Xe     0.6276115333     0.4058049388     3.7054180194
          6
Energy: -2.477736101980138 Kcal/mole
 Xe    18.7630202408   -14.3985291208     3.0371164440
 Xe    22.2327105403   -11.8954539766     3.2799175605
 Xe     6.1819803610    -6.6345866171     4.1502162099
 Xe     5.3238944738    -6.7737022041     0.0340723285
 Xe    18.9391463505   -11.0790597340     0.4635472650
 Xe     4.7129100045    -3.0158456424     2.2564761201
          6
Energy: -2.6036214593493634 Kcal/mole
 Xe    18.5469615718   -14.1127356998     3.4678943874
 Xe    22.0851560863   -11.4772776431     3.2520993735
 Xe     6.7074922149    -6.2468159585     4.2186201599
 Xe     6.4878106246    -6.2835659612    -0.1829200451
 Xe    18.4018523477   -10.4133507367     1.0517213498
 Xe     4.6430041341    -2.9720390634     2.0780518409
