          6
Energy: -3.030645015956488 Kcal/mole
 Xe   -10.2153897861    11.0500425765    18.1249390712
 Xe   -14.1034696242    10.0559329797    19.9904549655
 Xe   -13.8462795435    13.2836546989    17.0023260303
 Xe     0.7256347721     7.0487431736    -6.1301654438
 Xe     3.5354504622     7.6526691232    -9.4838307202
 Xe   -13.3801196752     9.0911842678    15.7317405793
