          5
Energy: -3.941129158466749 Kcal/mole
 Xe    -3.9861055027     8.9613122130    -0.0615760528
 Xe    -7.3466417593     6.3702950216     1.1339688626
 Xe    -3.9710886399     7.0016731564     3.8968574067
 Xe    -5.8598257508     6.2456875816    -2.9996607903
 Xe    -3.4142710045     4.5758849180     0.2484137262
