          5
Energy: -3.940415721745565 Kcal/mole
 Xe     1.6285773143     6.1386646397    -3.6114238874
 Xe     2.0078408450    10.4945166049    -4.2915831312
 Xe     2.7161005979     7.6752792913    -7.5894942641
 Xe    -1.3554936907     8.2889447561    -6.0846375270
 Xe    -1.1993116580     8.9461147509    -1.7359286956
