          5
Energy: -2.8249087755933004 Kcal/mole
 Xe    -0.4972037794     7.5072432102     0.4998504267
 Xe    -3.9890054514     5.6496783190     4.5895921875
 Xe    -1.8198706841     9.0285794057     4.4030452710
 Xe    -0.0751729719     4.6321810260     3.6000280990
 Xe    -6.4042834478     9.3212106336     3.7915011932
          5
Energy: -3.655093272635712 Kcal/mole
 Xe    -2.3547130672     5.3494691900     6.2834037445
 Xe    -2.1642919827     2.3368323081     9.2885304128
 Xe    -5.3541563731     2.1061827525     6.3081773997
 Xe    -6.8850433313     6.0290204076     5.7069259889
 Xe    -5.1903021696     5.7332633698     9.9406031745
          5
Energy: -2.775128010028867 Kcal/mole
 Xe    -3.7545433085     7.1321781607     8.4723359624
 Xe    -7.6984452822     5.8187234529     8.4035508457
 Xe    -6.0105663954     7.0856875011     4.5153336617
 Xe    -9.1527507491     2.8565411983     5.7595944218
 Xe    -2.7978674036     4.2208386375     5.7984711230
          5
Energy: -2.9486770063373506 Kcal/mole
 Xe    -5.4041331268     9.5553657840    -2.2998756526
 Xe    -2.4455922753    10.2921080570     2.1397431220
 Xe    -6.7085134855     9.6209510918     2.0907615820
 Xe    -7.9737392159     6.1626459150    -0.5563124778
 Xe    -3.5478109042     6.2975933222     3.2904699189
          5
Energy: -3.5018756130377113 Kcal/mole
 Xe    -5.5169518956     8.1916441964     2.2558111716
 Xe    -4.6357607099     5.2545950657    -1.4698910087
 Xe    -1.0890216389     8.6816647968    -0.6556654881
 Xe    -5.1012625390     9.9753122452    -1.7008626500
 Xe    -1.9833575994     5.3957963858     2.1583692206
          5
Energy: -3.687557101332478 Kcal/mole
 Xe    -1.0504003060     6.0959044085    -4.2840575644
 Xe    -0.9589294608     9.7929987851    -2.5149817153
 Xe    -4.4595127241     7.2708073366    -1.8638098760
 Xe    -3.2474314503     9.5483238001     1.5017054390
 Xe    -0.8144239374     6.1477841872     0.3277284173
          5
Energy: -3.789676420893168 Kcal/mole
 Xe    -0.3144901734     6.9870067474    -2.9871507606
 Xe    -2.3835758300     6.3246999096     0.7940831770
 Xe     1.6867216076     4.4407989397     0.0469770148
 Xe     1.5324991942     8.5632278674     1.0058792681
 Xe    -1.8602501764    10.3262040997    -0.9808926893
          5
Energy: -3.7769614974486374 Kcal/mole
 Xe     1.6352302595     6.3948932841    -0.5510763219
 Xe     2.8932098027    10.5981310393    -1.1627849277
 Xe     5.5356403840     6.9002660978    -2.9058344414
 Xe     1.6020342992     8.2814907729    -4.6480186441
 Xe    -1.2455914303     9.5922912925    -1.7722752520
          5
Energy: -3.8689128571993114 Kcal/mole
 Xe     1.6423079092     6.2148603499    -3.6631867557
 Xe     2.2400593840    10.6255794797    -4.3619759314
 Xe     2.8253404102     8.0312300879    -7.7333826508
 Xe    -1.2808155370     8.4651986414    -6.1498681534
 Xe    -1.0973200710     9.0989339395    -1.6692242181
          5
Energy: -3.940415721745565 Kcal/mole
 Xe     1.6285773143     6.1386646397    -3.6114238874
 Xe     2.0078408450    10.4945166049    -4.2915831312
 Xe     2.7161005979     7.6752792913    -7.5894942641
 Xe    -1.3554936907     8.2889447561    -6.0846375270
 Xe    -1.1993116580     8.9461147509    -1.7359286956
