          6
Energy: -0.8765422841851559 Kcal/mole
 Ne    -4.2413626867     3.9916523296    -6.1155618231
 Ne    -4.5661901774     7.0090682900    -6.7850271385
 Ne    -6.3197817796     4.8728914408    -8.2299079057
 Ne    -5.5237349355     5.8893400543    -4.0472308313
 Ne    -7.3018579627     3.7849365012    -5.4775773063
 Ne    -7.5863437685     6.8175780513    -6.1612057713
