          6
Energy: -0.8485886249335622 Kcal/mole
 Ne     0.9610455724     5.4662025773     0.6932207010
 Ne     3.5144267914     3.7901944820     4.7588741699
 Ne     2.0010285379     2.5890023842     0.0344320882
 Ne     3.7341407293     4.4995475958     1.7443890038
 Ne     1.9047385561     6.1916930682     3.5788665348
 Ne     1.0709736639     3.2807056938     2.9211915249
