          6
Energy: -0.009269610825093776 Kcal/mole
 Ne    -0.7915163258     1.3148855254     5.4174279392
 Ne     0.9343104799    -5.3081970725    -3.0120580856
 Ne    -0.6082809012     3.6081673810    -1.4041745629
 Ne     4.2492399348     5.3749546345    -5.3027536253
 Ne     4.9089073201    -3.6766074595     3.2985741789
 Ne    -3.8090881337    -3.1241274629     3.8594072086
