          6
Energy: -0.012362966032329057 Kcal/mole
 Ne     3.0310197552     7.8735602993    -3.2038827371
 Ne     6.6902260910    -4.4073203640     5.7290611396
 Ne    -3.4387575715     5.3542984503    -6.7656469927
 Ne    -1.8542836382    -0.6705403783    -5.9497804601
 Ne    -7.2721735903     4.7480913831    -3.7745286247
 Ne    -2.2268013958     1.8797545878     8.1984259673
          6
Energy: -0.05382299234068559 Kcal/mole
 Ne     6.0966224636    -6.7989733555    -5.4587474284
 Ne     5.3058750759     3.9922217037    -7.6547214965
 Ne     1.9014715990     4.4936421749    -6.3928303702
 Ne    -7.4037829005     2.3211949536     5.6630122339
 Ne    -5.1028584689    -6.0108641572    -0.5971238452
 Ne    -1.6344035214     1.3026755566    -6.9441110112
          6
Energy: -0.08274271056868747 Kcal/mole
 Ne    -5.8873618568    -2.1070394420     5.9656341680
 Ne    -8.0242313639    -6.2822955309     5.5578383098
 Ne     4.5544117624    -6.3881647927     7.9497324169
 Ne     0.9589068738     0.7943821255    -0.3985155602
 Ne    -3.7589498661     2.5754054479     3.7110189959
 Ne     2.3127624786    -5.5189768339     6.1437089473
          6
Energy: -0.05525718939521829 Kcal/mole
 Ne     7.9803209539    -4.0335980579    -1.1655313041
 Ne     3.6117892632    -7.3668963618     3.9124648236
 Ne     7.7558419908    -0.1377009905    -2.2660503781
 Ne     5.9447441296    -2.8402199851     2.3986006457
 Ne    -4.2815988525     1.6206747215    -8.0151434757
 Ne    -5.1708404731     7.0830244994     1.1614981626
          6
Energy: -0.04831631790399706 Kcal/mole
 Ne     4.1342921823     4.3912226805     0.2374090103
 Ne    -4.1744723581    -5.7965092583    -3.2370152469
 Ne     5.0118427051     4.1682453527    -2.3213634252
 Ne     2.6091406615    -1.1988956319    -7.1077700019
 Ne     2.3031744079     0.1896734784     1.8595538281
 Ne     7.8383327320     3.1961487326    -1.7785123752
          6
Energy: -0.07930521890045551 Kcal/mole
 Ne     5.6075842965     3.3361070289    -0.2062024763
 Ne    -1.4115328433     2.7677309894    -6.3660952129
 Ne    -7.0239160729     5.9179038293    -5.8534593562
 Ne     3.2732414599     5.3360074709    -0.0646373406
 Ne    -4.3091234342     8.0625346707    -2.1065954908
 Ne     0.3163468584    -2.4254913006     7.7895223232
          6
Energy: -0.08790893425955393 Kcal/mole
 Ne     0.1010661484     4.1525316209    -6.0711545242
 Ne    -4.0872776390    -7.5336689853     2.0258860609
 Ne    -5.3130321737     4.7539614670    -4.0469607662
 Ne    -7.7536216784     7.5888898430     1.5225585750
 Ne    -7.3247044348     2.9701178854     2.7585468472
 Ne    -5.3696571112     3.7470738458     4.9915640728
          6
Energy: -0.0999347134241892 Kcal/mole
 Ne    -2.0589820528     3.9085663834     4.3753936058
 Ne     4.3757647711    -2.3122822708     4.8139628865
 Ne     4.4525582271     5.9080768668    -0.0548462245
 Ne    -4.9439629920    -4.2296966929     0.5349008859
 Ne    -5.5025151633     3.1615234525     4.0524011739
 Ne    -7.9763270944    -5.0821928295     2.2004140830
          6
Energy: -0.6709637435170595 Kcal/mole
 Ne     2.8448873691     0.1125896052     3.4753972155
 Ne     0.0742903100     1.5578538746     4.8296990421
 Ne     0.9393036035     2.8740157300     7.3052801324
 Ne     3.6266208195     2.9424546178     4.6047403847
 Ne     1.7814178900     0.0578534395     6.7909490165
 Ne     1.0118201765     4.6856204726     4.4759954344
          6
Energy: -0.8481548408321885 Kcal/mole
 Ne     2.5594928257    -0.2025298626     3.6259843270
 Ne     0.1816667847     1.5543914463     4.5886653751
 Ne     0.9882315619     3.0793872819     7.1891811327
 Ne     3.1598052224     2.5087545189     5.0465990926
 Ne     2.0098647923     0.1597362155     6.6866102969
 Ne     0.9154991581     4.5504472616     4.4074457957
