          2
Energy: -0.019999999996470175 Kcal/mole
 He     3.4620105830    -1.0865446328    -5.8593221671
 He     3.3278693533     1.7220449712    -6.4294824628
