          2
Energy: -1.1868889412007275E-5 Kcal/mole
 He     7.4682036746    -3.2880382652    -6.1532844351
 He     7.4636132769     7.2145225598    -2.5339589288
          2
Energy: -2.8534516415395148E-6 Kcal/mole
 He    -0.1257701492     6.4716935244    -2.9101087012
 He     6.3802116612    -5.8821670259    -1.0334190658
          2
Energy: -1.0998499375212243E-4 Kcal/mole
 He     7.4489510288     6.6991477774    -4.2149383666
 He     2.9966100612     0.6218386386    -5.6186546701
          2
Energy: -8.745821365928543E-5 Kcal/mole
 He    -0.5976024558    -6.4335676197    -3.3609323440
 He     3.7221926525    -4.0188608773     2.8763938371
          2
Energy: -0.004580012893469584 Kcal/mole
 He    -2.0805618559     1.4450556942     4.3817084742
 He    -5.5559732656     1.0281693834     6.4666591573
          2
Energy: -3.0689385275104263E-6 Kcal/mole
 He     6.1265120810    -1.6679670219    -2.2120951592
 He    -5.3680048766     3.9493370455     3.2679686357
          2
Energy: -2.0510461178436004E-5 Kcal/mole
 He     5.8067046924     0.0371313571    -1.2052715766
 He     0.1682949898     6.8359114398    -6.1867991591
          2
Energy: -2.8315004654976575E-5 Kcal/mole
 He    -0.7485837427     1.6898306153     1.5977035308
 He    -0.4548040591    -4.3934207078    -5.8357277474
          2
Energy: -1.0526631275108871E-5 Kcal/mole
 He    -4.2819529077    -4.5643504064    -7.0677056603
 He    -3.5240653914     6.3659466390    -4.1702991074
          2
Energy: -0.019999999995505523 Kcal/mole
 He    -2.9747000780    -0.8139234636    -3.1428177941
 He    -3.0818682411     1.0651307021    -5.3082001405
