          2
Energy: -0.019999999995505523 Kcal/mole
 He    -2.9747000780    -0.8139234636    -3.1428177941
 He    -3.0818682411     1.0651307021    -5.3082001405
