          2
Energy: -0.019999999992870433 Kcal/mole
 He    -1.7669863987     0.3853010935     6.9433490461
 He    -2.7388047759    -1.6083986822     5.1234794288
