          2
Energy: -0.01999999996766505 Kcal/mole
 He    -1.9482166519     0.9886258545    -1.6088544006
 He     0.2451758432    -0.4300127632    -0.4224211072
