          2
Energy: -1.4779420374314372E-4 Kcal/mole
 He    -2.4595715182    -2.2207330009    -0.1789254328
 He     3.2878902414    -3.8549769899     4.0051485290
