          4
Energy: -0.05283639830931567 Kcal/mole
 Kr     0.0987409713     1.6818011902    -4.2314866393
 Kr    -2.4277668788    -4.2379568793     2.0591480213
 Kr     3.9437619309    -4.7337440274    -3.4918272271
 Kr     2.6454074213     1.7789425045     3.5253473284
