          4
Energy: -1.9018914266961195 Kcal/mole
 Kr    -1.0129395322    -1.7587570263    -1.8156790795
 Kr     3.0567925012    -1.8930088832    -1.9273706380
 Kr     1.0271924759     0.5119349299    -4.5138337531
 Kr     0.8753640732    -3.5234951851    -4.9556285348
