          4
Energy: -0.21927341402723022 Kcal/mole
 Kr     1.8717788637     5.7079906049    -1.5773329500
 Kr     1.6899871414     7.0445974039     7.3492390517
 Kr    -2.1919359240    -4.8453551685    -7.4026296656
 Kr     0.2981602482     3.8626228495     3.3746807728
          4
Energy: -0.302335774933841 Kcal/mole
 Kr    -0.4114692120     0.2739311745    -3.1225313743
 Kr     5.6058876855    -7.1072167502    -1.7612516274
 Kr    -3.9417679987    -6.8900101399    -2.7577418884
 Kr     6.4153448327    -6.1806461110    -5.4311755132
          4
Energy: -0.28894638431332714 Kcal/mole
 Kr    -1.8888499999     4.1810194219     3.8669214909
 Kr     0.5580211219     6.0218746365    -4.4239797717
 Kr    -5.7028911896     5.3665793858     1.3989760254
 Kr     4.9395846161     3.1449307931    -1.4180574278
          4
Energy: -0.6738738893123344 Kcal/mole
 Kr    -4.0398675354    -5.9291940738    -2.4126058059
 Kr    -0.9019932865    -4.1255342999     2.9503158591
 Kr    -4.6299999405    -1.4251156727    -3.9386048321
 Kr    -1.0759840729    -2.0482592260    -2.8471912992
          4
Energy: -0.30405947914783893 Kcal/mole
 Kr     5.7875630567     4.8388727585    -1.1321460538
 Kr    -4.0910810646     0.6293987264     1.0901042359
 Kr     3.6332824619    -2.5460237392    -3.5369825755
 Kr    -5.0277648174     1.1254238299    -3.1247777028
          4
Energy: -1.0493750954828414 Kcal/mole
 Kr    -3.2009560424    -0.0870847578    -2.4235463837
 Kr     0.3264245226     4.8481114179    -5.3045174171
 Kr     1.3658141385     0.6778525632    -2.2742912401
 Kr    -1.8392722811     3.2839738868    -2.1328163820
          4
Energy: -1.7316887064369375 Kcal/mole
 Kr     1.4607384819     3.0154491333     0.1589357942
 Kr    -0.1261752316    -0.3276728481     1.0556794417
 Kr    -1.4552866470     1.4608313222    -2.1722002648
 Kr     2.4252723974     0.3132043349    -2.4526966487
          4
Energy: -1.3377515419004573 Kcal/mole
 Kr    -0.2574181863    -2.0044159075    -6.0702899651
 Kr     2.9672735926    -0.1360213865    -3.5204732042
 Kr     1.1283341640    -4.5480498250    -3.3644800348
 Kr    -2.7074703159    -3.9815752390    -2.9877789809
          4
Energy: -1.8176686153210349 Kcal/mole
 Kr    -1.0889190962    -1.8370955844    -1.9241996199
 Kr     3.2612189393    -1.9934369705    -2.0333453385
 Kr     1.1552855012     0.6071261413    -4.3609291376
 Kr     0.9939661781    -3.2365137423    -5.0063144363
          4
Energy: -1.9018914266961195 Kcal/mole
 Kr    -1.0129395322    -1.7587570263    -1.8156790795
 Kr     3.0567925012    -1.8930088832    -1.9273706380
 Kr     1.0271924759     0.5119349299    -4.5138337531
 Kr     0.8753640732    -3.5234951851    -4.9556285348
