          4
Energy: -1.9019784234630488 Kcal/mole
 Kr    -1.2050477362     5.9511175379     0.0733616405
 Kr     1.8531407453     3.3643203711    -0.6396037931
 Kr    -1.9757460540     2.0033903200    -0.5406271471
 Kr    -0.1524973768     3.2112622866     2.8922596883
