          4
Energy: -1.9018094014101932 Kcal/mole
 Kr    -0.6476850441     4.0322594841     7.4538690884
 Kr    -1.7071570714     6.8447248185     4.7017790389
 Kr    -4.4663644523     5.4467506495     7.3450145363
 Kr    -3.1037555404     3.0373941645     4.3787656526
