          4
Energy: -1.9018638883264027 Kcal/mole
 Kr     2.2130632889    -2.1592996607    -5.0678496333
 Kr     4.5008027936     0.9691320896    -3.8155152339
 Kr     1.1531136560    -0.0627965987    -1.7433405140
 Kr     0.8166230233     1.6575718245    -5.4109965116
