          4
Energy: -0.11998937666229958 Kcal/mole
 He    -1.2790036059    -0.4238360645     1.1592046886
 He    -0.6671908291     0.2084013724    -1.5736363082
 He     0.5724558914     1.6743804880     0.5633838066
 He    -2.2145903522     2.0361525091     0.0045572381
