          4
Energy: -0.1199808397649881 Kcal/mole
 He     3.8065990042    -4.3107516404    -4.9991592876
 He     3.0059378948    -1.7034691753    -4.1245785199
 He     2.4007977152    -2.5520208326    -6.7867582650
 He     1.0238532017    -3.7294745002    -4.5675459641
