          4
Energy: -0.11997479610082162 Kcal/mole
 He    -0.6734544329     1.4281796123     0.2143914595
 He     0.7602705476    -0.7871222021    -0.9055641718
 He     2.0563086936     1.7488983150    -0.5527566606
 He     1.3935562261     0.1492304739     1.7373924018
