          4
Energy: -4.7179501413971127E-4 Kcal/mole
 He     5.8252168530     7.4646280919    -6.5861637423
 He    -7.4339457008     0.3395631263    -2.1543184336
 He    -3.8840954988    -0.1424596913     5.9226292673
 He     5.4266978502     6.9786706957    -0.4840391623
          4
Energy: -2.1937481204240347E-4 Kcal/mole
 He     1.2586428013     4.0641793822    -2.8823666092
 He    -4.1377939288     7.2190885812    -6.7477761554
 He    -7.3342923155    -6.9183598927    -0.7241766995
 He    -3.1023716471     3.9023762635     4.3971397562
          4
Energy: -0.005714412545666535 Kcal/mole
 He    -7.3697968533    -2.8367263070    -0.4226247940
 He    -1.1799553216     4.2556083624     4.7022082166
 He     4.3394512976     6.0046447661    -5.6321354063
 He     2.5218337221     5.2663996503     5.5025337541
          4
Energy: -0.0022432912722428386 Kcal/mole
 He     7.1835315838    -0.9017427875     6.4723165220
 He     1.0315703684     5.6699754718     5.2250915928
 He     0.5757639082     2.8592252811     1.5413540115
 He    -6.2708863369    -4.0336938723     3.0967761107
          4
Energy: -0.0023135900578000333 Kcal/mole
 He     0.6700321423     5.9807889382     3.8377217659
 He     0.9212881807     7.3824807471    -3.8674349965
 He     5.5771460019     2.7123409657    -0.0766424047
 He     7.3392672492     0.1666051715    -3.6826131112
          4
Energy: -0.0019206482090761842 Kcal/mole
 He     2.2875081137     5.6985017734    -1.7689472792
 He     2.9151247423    -3.9166347868    -0.0910019980
 He     2.0791331663     5.6908392054     6.4733572380
 He     0.0166467525     0.1716439556    -0.5885581890
          4
Energy: -0.00256281991326892 Kcal/mole
 He     6.8554712743    -3.2596690273     5.6852484969
 He    -0.6863898746     4.6117442237    -3.3935648579
 He    -1.0377460837    -6.8363623270    -5.3714406142
 He    -2.5083607993     5.7793188943     0.5706155041
          4
Energy: -0.005612699995879267 Kcal/mole
 He    -2.5549821645    -0.4481854090    -3.2350525155
 He    -2.6838953293     0.6995505069     5.8130177856
 He    -6.5415140733     1.3849382374     6.6345732205
 He    -4.5676934553    -5.2286933721     4.2736879038
          4
Energy: -0.0024060193510013865 Kcal/mole
 He     2.3864145446     7.4233702179     0.3812357846
 He     7.4269320818     0.6045146868     0.7089239422
 He    -1.2129475136     5.2357471868     3.1769456930
 He    -3.3808176186     1.5305669520     6.3000543977
          4
Energy: -0.11997587347507864 Kcal/mole
 He     0.5442947862     5.7627238936     0.4488488143
 He     1.8341118593     3.3763279793     1.3643119662
 He     0.5287474107     5.1244789553     3.2309071076
 He    -1.0303357974     3.5602980701     1.4033674876
