          4
Energy: -0.11997587347507864 Kcal/mole
 He     0.5442947862     5.7627238936     0.4488488143
 He     1.8341118593     3.3763279793     1.3643119662
 He     0.5287474107     5.1244789553     3.2309071076
 He    -1.0303357974     3.5602980701     1.4033674876
