          4
Energy: -0.0019293942988872445 Kcal/mole
 He    -3.6000059537    -3.8450374482    -1.8482772039
 He     3.1209215575     3.4967156019     4.2338938715
 He     2.3791445353     1.5279214319    -3.7229156658
 He    -0.4753164272    -0.1479617902     0.9656449284
