          10
Energy: -34.32193635257863 Kcal/mole
 H      0.1336122246     0.1891228160     2.0350014646
 F      0.3360308928    -0.5376570646     2.5562563811
 H     -1.5615533501    -0.4865548633    -1.0107606602
 F     -1.6483045906     0.4240242273    -1.0756370203
 H     -0.8143803537     1.1248391173     0.1962740077
 F     -0.3539463850     1.3518744159     0.9561059192
 H     -1.2408844066    -2.3134944369     0.2107205727
 F     -1.1563029575    -2.1076745671    -0.6788709963
 H     -0.7987952956    -1.7436085873     2.2639529380
 F     -1.4039902832    -2.3260515296     1.8960015201
          10
Energy: -34.16704635544423 Kcal/mole
 H      0.1158478955     0.3873486887     2.0547802493
 F      0.2415433276    -0.3708395326     2.5550204710
 H     -1.4629086068    -0.3954434613    -1.0835850233
 F     -1.2439013291     0.4917537791    -1.1597812759
 H     -0.6334084418     1.3036552741     0.2431632600
 F     -0.3189663005     1.6488245019     1.0323865135
 H     -1.8926695864    -1.9553731654     0.4175018349
 F     -1.8740281288    -1.9253147726    -0.4988157897
 H     -1.0893730854    -1.3144263554     2.3169249936
 F     -1.8541176015    -1.7747148591     2.1067124379
          10
Energy: -34.346177059876425 Kcal/mole
 H      0.3579171979     0.2030337534     1.8317128238
 F      0.2996539332    -0.5377989308     2.3689849393
 H     -1.7742983873    -0.2872847451    -0.9676123154
 F     -1.4108096433     0.5409560553    -1.1185497515
 H     -0.3578983816     1.1672721977     0.0164913728
 F      0.2238400400     1.3938290092     0.6881619915
 H     -2.3267256515    -1.8638581198     0.4041014736
 F     -2.4146428470    -1.7463449806    -0.5010781930
 H     -1.1259202295    -1.3860140242     2.2101307426
 F     -1.9346503437    -1.7852298534     2.0443859868
          10
Energy: -34.35594535121845 Kcal/mole
 H      0.2306630666     0.1266373704     1.6134424294
 F      0.4580669978    -0.7178033938     1.8892979132
 H     -2.1928957654    -0.0215078013    -0.8201604073
 F     -1.9506911312     0.8552558586    -0.9363989542
 H     -0.9512371266     1.3777729287     0.2734166921
 F     -0.3698961375     1.5680353620     0.9565944588
 H     -2.2805299598    -1.7931824938     0.5674005827
 F     -2.4856075165    -1.6040236213    -0.3061273887
 H     -0.9256419531    -1.6209645449     2.1814403284
 F     -1.7662973146    -1.9863666820     2.1555783609
          10
Energy: -34.331185434415886 Kcal/mole
 H      0.3086192258     0.2418823006     1.8340725332
 F      0.3911633246    -0.5705863518     2.2511698368
 H     -2.0806358866    -0.0983772386    -0.7705090984
 F     -1.7875398057     0.7625933257    -0.8876132184
 H     -0.7170419398     1.4421114227     0.2627221789
 F     -0.1865429362     1.6360614204     0.9851093365
 H     -2.3134083091    -1.7754921909     0.5991323231
 F     -2.4820443191    -1.6516061728    -0.2936740113
 H     -1.0276575177    -1.4178779144     2.2458998091
 F     -1.8559899750    -1.8065879005     2.1854110761
          10
Energy: -34.35765473971975 Kcal/mole
 H      0.4069659197     0.1989075943     1.5354181855
 F      0.5236738618    -0.6298283061     1.9102048763
 H     -2.1165473433    -0.1066746862    -0.8132526993
 F     -1.7895915362     0.7388166367    -0.9515759545
 H     -0.6736597960     1.3542587099     0.1018266792
 F     -0.0589223314     1.5667068070     0.7482419139
 H     -2.2835285184    -1.7851141302     0.6196883368
 F     -2.5572888444    -1.6517482038    -0.2452728262
 H     -0.9165859940    -1.4261972929     2.2046869431
 F     -1.7419279268    -1.8257524156     2.1972439679
          10
Energy: -34.43241034922755 Kcal/mole
 H      0.4635108977     0.2071884469     1.5025805871
 F      0.5959824830    -0.6350358499     1.8402172451
 H     -2.1787596443    -0.0391998095    -0.6672534804
 F     -1.9183342263     0.8215347027    -0.8467073775
 H     -0.6784567290     1.4263111960     0.1267909614
 F     -0.0267789872     1.6176662462     0.7428983917
 H     -2.3483826883    -1.7363869995     0.6581819124
 F     -2.5649213725    -1.6004776741    -0.2224591345
 H     -0.8757517208    -1.4102928035     2.1880556056
 F     -1.7321759712    -1.7350570383     2.2322675379
          10
Energy: -34.49706073935491 Kcal/mole
 H      0.4199317948     0.2213470655     1.6044462294
 F      0.5738575773    -0.6024172233     1.9767475188
 H     -2.1481146622    -0.0547701862    -0.6893704507
 F     -1.8698065610     0.8023024408    -0.8592530952
 H     -0.6788917070     1.4010493330     0.1733558438
 F     -0.0585665688     1.6030835371     0.8177686798
 H     -2.2905684381    -1.7335271043     0.6629910336
 F     -2.5178734148    -1.6097561614    -0.2167260808
 H     -0.8691664236    -1.4101970525     2.2329024679
 F     -1.7133262507    -1.7681689313     2.2210990637
          10
Energy: -34.49192619381898 Kcal/mole
 H      0.4279946229     0.2213249966     1.6011709806
 F      0.5734298629    -0.6024160526     1.9769212631
 H     -2.1308115519    -0.0654363901    -0.6959886924
 F     -1.8626450162     0.7956920291    -0.8616194714
 H     -0.7032360975     1.3911385752     0.1953268499
 F     -0.0711577963     1.6005193392     0.8258232550
 H     -2.2941020669    -1.7506816795     0.6613052161
 F     -2.5176859639    -1.6088461509    -0.2166366521
 H     -0.8785545036    -1.3893982639     2.2444071584
 F     -1.7128282347    -1.7692722590     2.2204887665
          10
Energy: -34.51646919000228 Kcal/mole
 H      0.4274808858     0.2223499184     1.6036270098
 F      0.5734571154    -0.6024704223     1.9767909765
 H     -2.1446335743    -0.0620225765    -0.7013546022
 F     -1.8619117899     0.7955109342    -0.8613348222
 H     -0.6968366930     1.3979757508     0.1867751493
 F     -0.0714972700     1.6001566428     0.8262769030
 H     -2.2941992917    -1.7472507270     0.6618770009
 F     -2.5176808064    -1.6090281550    -0.2166669839
 H     -0.8699175389    -1.4082757589     2.2260956334
 F     -1.7132864058    -1.7682708515     2.2214601506
