          5
Energy: -3.941594582669596 Kcal/mole
 Xe    -8.7424822708     6.4417333843     1.9085865613
 Xe    -9.2793646493     4.5820271664    -2.0486256847
 Xe    -9.8560872255     2.1851724877     1.6216836824
 Xe    -5.8038938677     3.5115305548     0.4763152399
 Xe    -7.8562041071     0.4168428380    -1.8899941864
