          5
Energy: -0.9871635511250818 Kcal/mole
 Xe     4.0099603802     6.2283556041     1.5617099743
 Xe    -0.6569781674    -5.1872599207     4.8058222166
 Xe     1.0446546930     0.2674867625     4.0018427144
 Xe    -2.2817482460    -8.7167260371     7.7791684572
 Xe    -0.2073020688     5.5285467779    -0.5096540551
          5
Energy: -0.29552566780372813 Kcal/mole
 Xe    -7.6487639877    -7.1210283723    -9.3457890774
 Xe     3.7575481838     0.8768891946    -8.3371105934
 Xe     9.7715978901     2.0569067400     6.4049664703
 Xe     6.1720244254    -0.7146833783     9.3359394209
 Xe     1.3977691820    -5.2987989571     8.7734926937
          5
Energy: -1.6660962915022697 Kcal/mole
 Xe    -6.6977477206     2.6079330283    -3.9182323774
 Xe     2.8158347882    -0.1324133573     6.0924180145
 Xe    -0.8144997492    -2.6017280813     5.3295232392
 Xe    -6.6389753232    -0.6706810293    -1.1379484838
 Xe     2.2956371752    -4.3633515336     8.1897830934
          5
Energy: -1.4656511027495531 Kcal/mole
 Xe     4.0290527002     3.8573528002    -4.9879796053
 Xe    -2.3362619156    -7.6577476738    -6.5457036295
 Xe    -2.7875429103    -7.0912172257    -1.7141735613
 Xe    -6.8778604825    -9.9063114709     0.1359206330
 Xe    -6.6053808498    -8.8370196829    -3.7429563481
          5
Energy: -3.1218216416932374 Kcal/mole
 Xe    -3.8717782703    -6.0356132126     2.1111186195
 Xe    -5.2736863666    -8.4319952721    -1.5554264234
 Xe    -1.0823205455    -8.8773725320    -2.3066663080
 Xe    -3.9432265581    -3.6575701755    -1.5921601414
 Xe    -3.4448791694    -6.5604736468    -5.2841393855
          5
Energy: -3.374248497218896 Kcal/mole
 Xe     0.0668920743    -6.6074947505    -1.5669131476
 Xe    -3.6230106456    -6.8000250768     0.2867382333
 Xe    -3.5043785280    -5.3042945735    -4.0191480966
 Xe    -1.4743698427    -4.4577358232     3.6105465252
 Xe    -2.0015020288    -2.5880815913    -0.3393948789
          5
Energy: -3.635822565332565 Kcal/mole
 Xe    -2.7875700130     1.2036988935     0.4821383957
 Xe    -5.2485834760    -1.0453370232    -3.3502827748
 Xe    -4.8761563042    -2.4515399660     1.2553876504
 Xe    -1.6620726681    -2.6670557279    -1.4487655343
 Xe    -5.2512832943    -5.2771832016    -2.2223284120
          5
Energy: -3.5513103875826326 Kcal/mole
 Xe    -3.4315386140     3.3982146350    -1.3386349638
 Xe    -7.2279064871     4.1149204863    -3.8750493884
 Xe    -7.0494909338     1.3650022598     0.4214367176
 Xe    -5.0634628945     0.5334308869    -4.1557998985
 Xe    -9.5041659364     0.2786063530    -3.1155604856
          5
Energy: -3.8644788880688594 Kcal/mole
 Xe    -8.5728899550     6.3381297214     2.0191547504
 Xe    -9.3293514267     4.6355389417    -1.9501813457
 Xe    -9.6164163417     2.0305935688     1.7382190382
 Xe    -5.7056961728     3.3331170375     0.6011699118
 Xe    -7.7741803183     0.3116684569    -1.8118929396
          5
Energy: -3.941594582669596 Kcal/mole
 Xe    -8.7424822708     6.4417333843     1.9085865613
 Xe    -9.2793646493     4.5820271664    -2.0486256847
 Xe    -9.8560872255     2.1851724877     1.6216836824
 Xe    -5.8038938677     3.5115305548     0.4763152399
 Xe    -7.8562041071     0.4168428380    -1.8899941864
