          5
Energy: -3.9412100186232375 Kcal/mole
 Xe    -3.0740311310    -6.7618385008    -1.3086584514
 Xe     0.1811784814    -0.6466018473    -3.1858710003
 Xe    -1.3300140140    -4.5076212751    -4.6817579170
 Xe     0.5009284721    -4.2404073177    -0.6613051388
 Xe    -3.4526860587    -2.3748139294    -1.4128496872
