          5
Energy: -3.941543266263998 Kcal/mole
 Xe    -0.8899482979     7.3127488559    -2.5677791179
 Xe    -0.4524422312     5.0567019855    -6.3335200189
 Xe    -3.8481447667     4.2178703662    -3.6221713752
 Xe    -3.7015106881     8.0181597405    -5.8649663506
 Xe    -4.4524175616     4.2187242367    -7.9791776746
