          12
Energy: -41.821481391433736 Kcal/mole
 H      0.6157905294    -0.9300991922     0.2433828266
 F      0.4230675045    -1.1728627796    -0.6196424780
 H      1.9403841696     1.7010214962    -1.0755046074
 F      2.1841716052     2.2049092685    -0.3491756191
 H      0.3759142742     0.3685054172     2.0181573676
 F      0.9749593635    -0.2614478473     1.7262791987
 H     -0.4437926622     2.3189087655     1.7716889732
 F     -0.6615003115     1.6287039791     2.3348139436
 H      0.8877370558     3.0477658520     0.2561319455
 F      0.1127112576     3.3776024540     0.6186672238
 H      0.9934867075    -0.0470249573    -1.7350161368
 F      1.3211219918     0.6654530342    -2.2103257539
