          12
Energy: -41.84954861148162 Kcal/mole
 H      0.3398846414    -1.2425000785     0.0749438810
 F      0.3216613443    -1.3017804680    -0.8399565217
 H      2.0099884205     1.4895948060    -0.6624647122
 F      2.4349013647     1.7131741475     0.1187844592
 H     -0.1975975175    -0.1483039010     1.8157738175
 F      0.3472106547    -0.8770755653     1.7019102293
 H     -0.4194495064     1.9626257610     1.7764454450
 F     -1.0250439687     1.2740784322     1.7832954984
 H      1.4710883930     2.6473304661     1.1043174429
 F      0.8251271438     3.0449656281     1.6195934295
 H      0.7720328133     0.1190828581    -1.6201207583
 F      1.0548784435     0.9464665445    -1.8963879932
