          12
Energy: -41.74064523768351 Kcal/mole
 H      0.2850429278    -1.3258185418     0.2169437998
 F      0.3992895818    -1.4148835773    -0.6885417725
 H      1.9724250198     1.5344462080    -0.5812700423
 F      2.4484756564     1.8259658833     0.1462470161
 H     -0.3402641759    -0.1863957851     1.9536358847
 F      0.1914925727    -0.9203414145     1.8141813282
 H     -0.4225439820     1.8651930010     2.0104663367
 F     -1.1129148361     1.2648952042     1.9478593160
 H      1.5386619261     2.4535632460     1.3802422160
 F      0.9777615281     2.7432289435     2.0453538812
 H      0.7155034383     0.0387265262    -1.4236393726
 F      0.9130824473     0.8986885864    -1.6732726843
          12
Energy: -41.753473971672776 Kcal/mole
 H     -0.0721819975    -1.4251672191    -0.0640492667
 F      0.1697246051    -1.4391057535    -0.9484563635
 H      1.9292130814     1.4978801018    -0.5557611925
 F      2.4506845565     1.7276046833     0.1626976562
 H     -0.7075935336    -0.2555254155     1.7196105560
 F     -0.3437954631    -1.0804064083     1.5519462734
 H     -0.4822870737     1.8798789930     1.9557126421
 F     -1.2016808511     1.3173579624     1.8724559119
 H      1.5091424062     2.4376299633     1.3496524243
 F      0.8908842626     2.7461205826     1.9525449567
 H      0.5974626526     0.0869705741    -1.5102942579
 F      0.8154200444     0.9624544739    -1.6743415576
          12
Energy: -41.6730013644665 Kcal/mole
 H     -0.0437622856    -1.4726271891    -0.1042852857
 F      0.2859002372    -1.4968562203    -0.9596358426
 H      1.9407624125     1.4147597381    -0.4779767174
 F      2.4907559209     1.6285979114     0.2239273903
 H     -0.9351156386    -0.2083321329     1.5346361052
 F     -0.6584462805    -1.0791808534     1.4573989885
 H     -0.4664412472     1.9407207735     1.7301402593
 F     -1.2150664457     1.4315744580     1.5844716573
 H      1.6025175472     2.4412684308     1.3920086770
 F      0.9603048100     2.7633115942     1.9618683097
 H      0.5630361656     0.0830407261    -1.3800659665
 F      0.7286036301     0.9772539703    -1.4977905968
          12
Energy: -41.64822604682644 Kcal/mole
 H     -0.0403544369    -1.3792273057     0.1962697981
 F      0.3541362407    -1.4121358846    -0.6308838338
 H      1.9178720530     1.5760110092    -0.6009081243
 F      2.4825124131     1.8724341195     0.0580331503
 H     -0.9803920667    -0.1381334095     1.6909181983
 F     -0.7876716670    -1.0335765653     1.6469932351
 H     -0.4820799810     2.0048254112     1.7475995303
 F     -1.2032024159     1.5056853145     1.4797738451
 H      1.5626250129     2.4566549589     1.3316973149
 F      1.0003515168     2.7425285370     1.9972901432
 H      0.6590966483     0.0526998839    -1.3353638867
 F      0.8083227299     0.9201070565    -1.5927067974
          12
Energy: -41.69349468248535 Kcal/mole
 H     -0.0608376482    -1.3574505580     0.1556669227
 F      0.3721820959    -1.4122303758    -0.6507957688
 H      1.9040273359     1.5201072327    -0.6265859502
 F      2.4637127317     1.7802282748     0.0516310513
 H     -0.9832345191    -0.0389047545     1.6101787854
 F     -0.7375157548    -0.9223549319     1.6049756166
 H     -0.4400060009     2.0640919105     1.6946154777
 F     -1.1733747953     1.5903674002     1.4141795674
 H      1.6087481728     2.4384548242     1.3508040459
 F      1.0387737881     2.7661452055     1.9900514274
 H      0.6099066430     0.0587702662    -1.3860376361
 F      0.7315017492     0.9254975743    -1.6596932656
          12
Energy: -41.74695999117188 Kcal/mole
 H     -0.0958848955    -1.3475925223     0.0800062793
 F      0.2375105490    -1.4293237433    -0.7703210018
 H      1.9526764479     1.4865677240    -0.6349260845
 F      2.4715512901     1.7846848600     0.0599005639
 H     -0.9696727875    -0.0623974913     1.5575312930
 F     -0.6833426986    -0.9335396662     1.5536081143
 H     -0.4758864134     2.0309369669     1.6722666661
 F     -1.2238463218     1.5721809210     1.4058311847
 H      1.6103967280     2.4183103571     1.3379048794
 F      1.0098519337     2.6935606303     1.9738861976
 H      0.5345075816     0.0575225421    -1.4561850046
 F      0.7619756843     0.9227918514    -1.6573224814
          12
Energy: -41.80460372502253 Kcal/mole
 H     -0.0576785917    -1.3417106549     0.0681204109
 F      0.2691026168    -1.4420503706    -0.7827820414
 H      1.9428588119     1.4862981377    -0.6559930772
 F      2.5174880541     1.7470310895     0.0093704038
 H     -0.9094498752    -0.0551910577     1.5200457800
 F     -0.6250798903    -0.9258967646     1.5635691488
 H     -0.4529231380     2.0330057554     1.5141747183
 F     -1.1977542706     1.5664941986     1.2524830080
 H      1.6325942147     2.4461751553     1.2489052157
 F      1.0190758187     2.7264752208     1.8701266344
 H      0.5315983330     0.0715681793    -1.4122574984
 F      0.7056518389     0.9486465411    -1.6155502043
          12
Energy: -41.809119790827594 Kcal/mole
 H     -0.0940381597    -1.3472580979     0.0422498677
 F      0.2178929773    -1.4546484975    -0.8133524160
 H      1.9763199390     1.5027460393    -0.6673280030
 F      2.5463696754     1.8002915942    -0.0135704479
 H     -0.8919056114    -0.0494731567     1.5241261734
 F     -0.6260105729    -0.9262000861     1.5633526934
 H     -0.4246537551     2.0873765452     1.4826317776
 F     -1.1462916482     1.5758906900     1.2407434333
 H      1.6456896536     2.5035482566     1.1920234282
 F      1.0441812410     2.7844663329     1.8246067540
 H      0.5359558667     0.0552462252    -1.4320843440
 F      0.7406026672     0.9257853490    -1.6349890529
          12
Energy: -41.8271558135134 Kcal/mole
 H     -0.1023928844    -1.3545378929     0.0400390887
 F      0.2183361762    -1.4542623212    -0.8132351393
 H      1.9785433874     1.5121865193    -0.6933321405
 F      2.5442196814     1.8268928341    -0.0438252000
 H     -0.8645483592    -0.0290447208     1.5041223559
 F     -0.5895129790    -0.9021150393     1.5588284662
 H     -0.4100697632     2.0649384620     1.4849980649
 F     -1.1470652953     1.5770809784     1.2406179072
 H      1.6332205135     2.5091714418     1.1705854966
 F      1.0322171232     2.7946754078     1.8015937455
 H      0.5740724718     0.0435381518    -1.4237448351
 F      0.7592384165     0.9156919279    -1.6381051948
          12
Energy: -41.84341842849841 Kcal/mole
 H     -0.0864345307    -1.3554750169     0.0459676680
 F      0.2174896224    -1.4542126090    -0.8135496367
 H      1.9716700122     1.5165596244    -0.6893984597
 F      2.5445842981     1.8266608510    -0.0440338727
 H     -0.8636139520    -0.0281623105     1.5145746373
 F     -0.5895625471    -0.9021618491     1.5582739968
 H     -0.4169932819     2.0749445166     1.4855829668
 F     -1.1466980186     1.5765501804     1.2405868795
 H      1.6416638872     2.5101466782     1.1782960174
 F      1.0317692218     2.7946236738     1.8011847202
 H      0.5664419362     0.0440423364    -1.4284835988
 F      0.7596431988     0.9156651820    -1.6378538144
