          12
Energy: -41.606328763548305 Kcal/mole
 H      0.2152359916    -0.9829159365    -0.1493325721
 F      0.1928128910    -0.9855604285    -1.0660545644
 H      2.1663921473     1.7642780310    -0.6469264043
 F      2.5834158545     2.0236357139     0.1274855145
 H     -0.2176867969     0.0237570771     1.7071942782
 F      0.3126658920    -0.7005591537     1.5201621332
 H     -0.4006520073     2.1504417703     1.7641700980
 F     -0.9979690672     1.4579148100     1.8313097968
 H      1.4655403224     2.9079161768     1.0021490688
 F      0.8048070232     3.2987049152     1.5037511714
 H      0.9726409715     0.3445330742    -1.7020285282
 F      1.3327255493     1.1625754605    -1.9070523099
          12
Energy: -41.52541455503214 Kcal/mole
 H      0.4571489326    -1.0845275940     0.0025727029
 F      0.3282444167    -1.1484596421    -0.9030681304
 H      2.0322750890     1.6460902072    -0.7173388718
 F      2.4962183757     1.8122651055     0.0559861115
 H     -0.1128395051    -0.1193470550     1.7938913150
 F      0.4723572289    -0.8039693377     1.6214786915
 H     -0.3674968855     2.0883695084     1.7295844610
 F     -0.9161986064     1.3626290282     1.8441103398
 H      1.5081565692     2.8099591324     0.9047686365
 F      0.8295433640     3.2436138341     1.3433079362
 H      0.7144571242     0.2908683356    -1.6586902242
 F      0.9822557190     1.1335252628    -1.9017996969
          12
Energy: -41.63604519225731 Kcal/mole
 H      0.2902976823    -1.2068318412     0.0350138503
 F      0.2231658271    -1.3188836561    -0.8726351484
 H      1.9950933809     1.7093303254    -0.8495010025
 F      2.4427401911     2.0742152955    -0.1372087227
 H     -0.1666806224    -0.0905624768     1.8050949130
 F      0.3661792246    -0.8211850366     1.6529763452
 H     -0.3031737770     2.0484926277     1.8260884456
 F     -0.9183412481     1.3811776889     1.9570417005
 H      1.4425885494     2.8664622073     0.9497538292
 F      0.8013536585     3.1904401034     1.5196179687
 H      0.7362395788     0.0930916348    -1.6007719418
 F      1.0232065438     0.8951668862    -1.9402041916
          12
Energy: -41.5962259263199 Kcal/mole
 H      0.3126046352    -1.2120102084     0.0209780422
 F      0.2968606005    -1.2439404904    -0.8953306298
 H      1.8941320109     1.4883163455    -0.6999872465
 F      2.3833771437     1.6210671440     0.0641497999
 H     -0.2181967295    -0.1358309750     1.8294860992
 F      0.2927293568    -0.8830887685     1.6830302207
 H     -0.3528415471     2.0040423595     1.7397815312
 F     -0.9939324145     1.3517498567     1.8061591665
 H      1.5099785973     2.6844694593     1.0050308489
 F      0.8712428559     3.0993506407     1.5156963539
 H      0.6420478457     0.1715855426    -1.6726316145
 F      0.8737501292     1.0165711626    -1.9431909497
          12
Energy: -41.74590628984788 Kcal/mole
 H      0.2761587021    -1.2743240060     0.0142637644
 F      0.2864138371    -1.3023212276    -0.9022513680
 H      1.8899973082     1.4307148578    -0.6504736665
 F      2.3600440151     1.5966503657     0.1192084110
 H     -0.2660008123    -0.1809774079     1.8511695409
 F      0.2592092995    -0.9062053389     1.6534632268
 H     -0.4726759703     1.9579406989     1.9193046130
 F     -1.0667807148     1.2647344337     2.0052908121
 H      1.4052685112     2.5967975730     1.0638947983
 F      0.7528167090     3.0280181217     1.5426896230
 H      0.5778660871     0.2078284227    -1.6022153600
 F      0.8099105916     1.0663786747    -1.8256785844
          12
Energy: -41.77862119557392 Kcal/mole
 H      0.2969119334    -1.2075975867     0.0843904188
 F      0.2599460886    -1.2609653399    -0.8303086624
 H      1.9672436857     1.4697076664    -0.6881710501
 F      2.4216747349     1.6897485796     0.0773114239
 H     -0.1631732592    -0.1198181234     1.8695223698
 F      0.4080471097    -0.8155610472     1.6947709055
 H     -0.4416131312     1.9561424491     1.8932076076
 F     -1.0473017402     1.2715482780     1.9664273439
 H      1.4524070432     2.6034483732     1.0666046769
 F      0.8404056570     3.0018157748     1.6212637763
 H      0.6968588820     0.1482982009    -1.6130045024
 F      0.9663465216     0.9703046582    -1.9172589951
          12
Energy: -41.74900822556043 Kcal/mole
 H      0.3221157168    -1.2397587047     0.0894882709
 F      0.2795541102    -1.3005847738    -0.8245017175
 H      2.0290409850     1.4909297798    -0.6800632059
 F      2.4429419702     1.7169885170     0.1063669701
 H     -0.1626943605    -0.1511535478     1.8102322824
 F      0.3682705704    -0.8920617563     1.7101309904
 H     -0.4323386216     1.9795168032     1.7476046539
 F     -1.0328944552     1.2865534750     1.7427552676
 H      1.4766700288     2.6393111995     1.0829088861
 F      0.8377366804     3.0604050719     1.5882138702
 H      0.7896709015     0.1107041182    -1.6203320309
 F      1.0674505066     0.9317302506    -1.9197374097
          12
Energy: -41.76952285486033 Kcal/mole
 H      0.3336799949    -1.2575860646     0.0762180347
 F      0.2853330106    -1.2662854438    -0.8394652566
 H      2.0143193857     1.5149183837    -0.6715667555
 F      2.4346716170     1.7118307902     0.1192673016
 H     -0.1833151265    -0.1684740061     1.7920903882
 F      0.3659306623    -0.8957616889     1.6907459754
 H     -0.4268442844     1.9687919697     1.7631715371
 F     -1.0246516929     1.2737513291     1.7839996485
 H      1.4728138877     2.6457486813     1.1026286427
 F      0.8256847847     3.0689567759     1.5955868892
 H      0.7685172995     0.1370199734    -1.5903151641
 F      1.0583655046     0.9522878210    -1.8939849760
          12
Energy: -41.80245491929884 Kcal/mole
 H      0.3176072892    -1.2160129725     0.0755290805
 F      0.2861856305    -1.2684908003    -0.8394287092
 H      2.0070321779     1.5000254974    -0.6637615698
 F      2.4350581865     1.7126208234     0.1188532545
 H     -0.1981364314    -0.1529872806     1.8402888821
 F      0.3472392428    -0.8768271229     1.7006097618
 H     -0.4343572686     1.9754695826     1.7852916736
 F     -1.0242531464     1.2733970971     1.7828262264
 H      1.4610460591     2.6489888411     1.0848938338
 F      0.8263090408     3.0687848929     1.5965276799
 H      0.7602778737     0.1222671277    -1.6229167094
 F      1.0555020159     0.9462976263    -1.8962396745
          12
Energy: -41.84954861148162 Kcal/mole
 H      0.3398846414    -1.2425000785     0.0749438810
 F      0.3216613443    -1.3017804680    -0.8399565217
 H      2.0099884205     1.4895948060    -0.6624647122
 F      2.4349013647     1.7131741475     0.1187844592
 H     -0.1975975175    -0.1483039010     1.8157738175
 F      0.3472106547    -0.8770755653     1.7019102293
 H     -0.4194495064     1.9626257610     1.7764454450
 F     -1.0250439687     1.2740784322     1.7832954984
 H      1.4710883930     2.6473304661     1.1043174429
 F      0.8251271438     3.0449656281     1.6195934295
 H      0.7720328133     0.1190828581    -1.6201207583
 F      1.0548784435     0.9464665445    -1.8963879932
