          8
Energy: -28.931203766515438 Kcal/mole
 H     -3.0875930668    -6.0710144332    -6.0273990293
 F     -2.7852275163    -5.4452199746    -6.6256008092
 H     -2.4834887439    -4.0358043412    -5.7740025995
 F     -2.4044590726    -3.4255170393    -5.0941550282
 H     -2.8878555234    -4.1695267948    -3.6744423960
 F     -3.1945362857    -4.7932677125    -3.0762926006
 H     -3.4900383287    -6.2019667879    -3.9283124035
 F     -3.5648793734    -6.8163942103    -4.6048970328
          8
Energy: -28.931536918770774 Kcal/mole
 H     -3.0849500734    -6.0707735925    -6.0258195542
 F     -2.7853677210    -5.4452327507    -6.6256845967
 H     -2.4835518951    -4.0361692598    -5.7736674842
 F     -2.4044557226    -3.4254976812    -5.0941728053
 H     -2.8910178973    -4.1682780364    -3.6747513497
 F     -3.1943685291    -4.7933339563    -3.0762762114
 H     -3.4887723532    -6.2043387319    -3.9263071596
 F     -3.5649465305    -6.8162683841    -4.6050034064
          8
Energy: -28.930926737452893 Kcal/mole
 H     -3.0818819196    -6.0711385991    -6.0246774226
 F     -2.7855304795    -5.4452133879    -6.6257451842
 H     -2.4819127352    -4.0332438125    -5.7764726200
 F     -2.4045426762    -3.4256528694    -5.0940239994
 H     -2.8896131327    -4.1705798257    -3.6764344448
 F     -3.1944430486    -4.7932118517    -3.0761869271
 H     -3.4914914843    -6.2025098230    -3.9276607177
 F     -3.5648022868    -6.8163654035    -4.6049316033
          8
Energy: -28.931154490852123 Kcal/mole
 H     -3.0871976924    -6.0690943046    -6.0251981341
 F     -2.7852484900    -5.4453218330    -6.6257175616
 H     -2.4834219555    -4.0385392265    -5.7715448300
 F     -2.4044626156    -3.4253719599    -5.0942854072
 H     -2.8906399742    -4.1672657258    -3.6735001147
 F     -3.1943885771    -4.7933876570    -3.0763425865
 H     -3.4905195813    -6.2035594413    -3.9268167266
 F     -3.5648538440    -6.8163097237    -4.6049763750
          8
Energy: -28.931559240855307 Kcal/mole
 H     -3.0859863499    -6.0708350327    -6.0264024015
 F     -2.7853127490    -5.4452294914    -6.6256536780
 H     -2.4817484806    -4.0355175842    -5.7744597441
 F     -2.4045513896    -3.4255322511    -5.0941307778
 H     -2.8902360344    -4.1696591755    -3.6757943530
 F     -3.1944100051    -4.7932606900    -3.0762208824
 H     -3.4903048329    -6.2048279308    -3.9256963831
 F     -3.5648652360    -6.8162424333    -4.6050358067
          8
Energy: -28.931353310666765 Kcal/mole
 H     -3.0837325476    -6.0708647658    -6.0253081157
 F     -2.7854323080    -5.4452279141    -6.6257117274
 H     -2.4820735647    -4.0371803538    -5.7729279743
 F     -2.4045341446    -3.4254440450    -5.0942120346
 H     -2.8898955917    -4.1699552612    -3.6759293972
 F     -3.1944280648    -4.7932449834    -3.0762137187
 H     -3.4895248798    -6.2061080741    -3.9246324592
 F     -3.5649066107    -6.8161745246    -4.6050922454
          8
Energy: -28.931366771255938 Kcal/mole
 H     -3.0872064040    -6.0693687430    -6.0254877192
 F     -2.7852480279    -5.4453072747    -6.6257021998
 H     -2.4827835878    -4.0373974293    -5.7726507178
 F     -2.4044964795    -3.4254325296    -5.0942267424
 H     -2.8915233388    -4.1693208461    -3.6760939022
 F     -3.1943417166    -4.7932786376    -3.0762049921
 H     -3.4926296571    -6.2052364100    -3.9250782015
 F     -3.5647419094    -6.8162207644    -4.6050685998
          8
Energy: -28.93114382748513 Kcal/mole
 H     -3.0832564416    -6.0684553428    -6.0225727379
 F     -2.7854575643    -5.4453557284    -6.6258568328
 H     -2.4828864973    -4.0347978699    -5.7749743034
 F     -2.4044910204    -3.4255704302    -5.0941034816
 H     -2.8901045834    -4.1693670807    -3.6754236543
 F     -3.1944169783    -4.7932761850    -3.0762405472
 H     -3.4927706787    -6.2029950300    -3.9270841902
 F     -3.5647344285    -6.8163396644    -4.6049621867
          8
Energy: -28.930413531833693 Kcal/mole
 H     -3.0968623717    -6.0693658214    -6.0290229814
 F     -2.7992048320    -5.4410695846    -6.6269634700
 H     -2.4890456629    -4.0364614135    -5.7727413050
 F     -2.4041642909    -3.4254821831    -5.0942219370
 H     -2.8899565592    -4.1662493122    -3.6720836855
 F     -3.1944248306    -4.7934415754    -3.0764177248
 H     -3.4897370850    -6.2010947138    -3.9291388773
 F     -3.5648953537    -6.8164404718    -4.6048531903
          8
Energy: -28.9315270286059 Kcal/mole
 H     -3.0953674475    -6.0679347721    -6.0267832898
 F     -2.7992841343    -5.4411454985    -6.6270822804
 H     -2.4866225136    -4.0358055613    -5.7736295020
 F     -2.4042928334    -3.4255169745    -5.0941748202
 H     -2.8897685719    -4.1701037199    -3.6760191511
 F     -3.1944348029    -4.7932371080    -3.0762089574
 H     -3.4902617801    -6.2041278471    -3.9263318873
 F     -3.5648675198    -6.8162795711    -4.6050020947
          8
Energy: -28.93086929262074 Kcal/mole
 H     -3.0953051168    -6.0677100020    -6.0265179673
 F     -2.7992874408    -5.4411574220    -6.6270963552
 H     -2.4853564466    -4.0346712930    -5.7747984174
 F     -2.4043599953    -3.4255771449    -5.0941128119
 H     -2.8925981665    -4.1713890819    -3.6787765982
 F     -3.1942846995    -4.7931689225    -3.0760626812
 H     -3.4915980873    -6.2065429478    -3.9240166675
 F     -3.5647966318    -6.8161514556    -4.6051249117
          8
Energy: -28.9310966276027 Kcal/mole
 H     -3.0947390485    -6.0682383861    -6.0267907861
 F     -2.7993174694    -5.4411293925    -6.6270818828
 H     -2.4889184180    -4.0324600014    -5.7763378579
 F     -2.4041710409    -3.4256944488    -5.0940311482
 H     -2.8918987722    -4.1695171368    -3.6764872905
 F     -3.1943218007    -4.7932682249    -3.0761841237
 H     -3.4880639363    -6.2032379384    -3.9273813973
 F     -3.5649841103    -6.8163267787    -4.6049464206
          8
Energy: -28.930740679760078 Kcal/mole
 H     -3.0934499086    -6.0686683946    -6.0266072295
 F     -2.7993858553    -5.4411065815    -6.6270916200
 H     -2.4890905710    -4.0353902265    -5.7736986444
 F     -2.4041619086    -3.4255390071    -5.0941711523
 H     -2.8847546913    -4.1702238617    -3.6735698792
 F     -3.1947007777    -4.7932307347    -3.0763388856
 H     -3.4932660925    -6.2033548830    -3.9267064036
 F     -3.5647081480    -6.8163205750    -4.6049822274
          8
Energy: -28.931146861313835 Kcal/mole
 H     -3.0959515881    -6.0695291446    -6.0287420272
 F     -2.7992531469    -5.4410609207    -6.6269783739
 H     -2.4878303246    -4.0358562396    -5.7734364705
 F     -2.4042287618    -3.4255142862    -5.0941850601
 H     -2.8888456835    -4.1695835270    -3.6750080784
 F     -3.1944837600    -4.7932647030    -3.0762625925
 H     -3.4913301184    -6.2045465797    -3.9258379650
 F     -3.5648108469    -6.8162573583    -4.6050282961
          8
Energy: -28.930447132118132 Kcal/mole
 H     -3.0885777995    -6.0706724126    -6.0263400842
 F     -2.7996443094    -5.4410002730    -6.6271057915
 H     -2.4897074207    -4.0342333000    -5.7746578041
 F     -2.4041291862    -3.4256003794    -5.0941202711
 H     -2.8892451070    -4.1690211345    -3.6746256084
 F     -3.1944625715    -4.7932945366    -3.0762828816
 H     -3.4906990562    -6.2033983926    -3.9269426268
 F     -3.5648443233    -6.8163182670    -4.6049696963
          8
Energy: -28.931427198101545 Kcal/mole
 H     -3.0961531395    -6.0667083819    -6.0258928609
 F     -2.7992424551    -5.4412105557    -6.6271295156
 H     -2.4854429375    -4.0355344088    -5.7740147315
 F     -2.4043554072    -3.4255313586    -5.0941543847
 H     -2.8899798452    -4.1701817387    -3.6762074415
 F     -3.1944235954    -4.7932329693    -3.0761989691
 H     -3.4916981523    -6.2038915832    -3.9263887413
 F     -3.5647913236    -6.8162921043    -4.6049990787
          8
Energy: -28.93122342240426 Kcal/mole
 H     -3.0959973378    -6.0680456902    -6.0272102998
 F     -2.7992507200    -5.4411396146    -6.6270596285
 H     -2.4855184129    -4.0353037792    -5.7742125853
 F     -2.4043514034    -3.4255435929    -5.0941438890
 H     -2.8909459755    -4.1701593150    -3.6766733603
 F     -3.1943723444    -4.7932341588    -3.0761742531
 H     -3.4915135723    -6.2057869082    -3.9247032359
 F     -3.5648011151    -6.8161915617    -4.6050884908
          8
Energy: -28.93100308189574 Kcal/mole
 H     -3.0966056882    -6.0680956455    -6.0275638973
 F     -2.7992184485    -5.4411369645    -6.6270408710
 H     -2.4855935050    -4.0378771104    -5.7718870157
 F     -2.4043474199    -3.4254070837    -5.0942672551
 H     -2.8878947096    -4.1700606917    -3.6750186817
 F     -3.1945342070    -4.7932393905    -3.0762620300
 H     -3.4896383332    -6.2033484939    -3.9271046248
 F     -3.5649005922    -6.8163209140    -4.6049611027
          8
Energy: -28.931350947446532 Kcal/mole
 H     -3.0962683663    -6.0666114420    -6.0258489337
 F     -2.7992363426    -5.4412156981    -6.6271318459
 H     -2.4892382310    -4.0345855129    -5.7744014894
 F     -2.4041540756    -3.4255816953    -5.0941338680
 H     -2.8900933662    -4.1681418143    -3.6741393602
 F     -3.1944175733    -4.7933411825    -3.0763086760
 H     -3.4904443608    -6.2034404373    -3.9269325234
 F     -3.5648578343    -6.8163160366    -4.6049702323
          8
Energy: -28.93124878225555 Kcal/mole
 H     -3.0973313064    -6.0675699583    -6.0273748109
 F     -2.7991799561    -5.4411648510    -6.6270509016
 H     -2.4873551771    -4.0363558018    -5.7730455822
 F     -2.4042539673    -3.4254877856    -5.0942057958
 H     -2.8894197058    -4.1695232367    -3.6752379556
 F     -3.1944533095    -4.7932679013    -3.0762503980
 H     -3.4925131669    -6.2042439294    -3.9259837261
 F     -3.5647480889    -6.8162734132    -4.6050205638
          8
Energy: -28.930782360151994 Kcal/mole
 H     -3.0943335976    -6.0695776654    -6.0279933486
 F     -2.7993389776    -5.4410583468    -6.6270180896
 H     -2.4888275752    -4.0359521721    -5.7732267176
 F     -2.4041758599    -3.4255091972    -5.0941961870
 H     -2.8885092215    -4.1700942117    -3.6753678368
 F     -3.1945016086    -4.7932376124    -3.0762435081
 H     -3.4916524381    -6.2004752659    -3.9294931983
 F     -3.5647937486    -6.8164733321    -4.6048343944
          8
Energy: -28.930291367335514 Kcal/mole
 H     -3.0938995779    -6.0658235784    -6.0238681929
 F     -2.7993620014    -5.4412574925    -6.6272369196
 H     -2.4851548778    -4.0316990555    -5.7774696493
 F     -2.4043706881    -3.4257348152    -5.0939711093
 H     -2.8945538462    -4.1710339860    -3.6793854035
 F     -3.1941809552    -4.7931877595    -3.0760303855
 H     -3.4895751429    -6.2044997492    -3.9260724432
 F     -3.5649039443    -6.8162598425    -4.6050158576
          8
Energy: -28.930301717097564 Kcal/mole
 H     -3.0973759809    -6.0659035047    -6.0256613089
 F     -2.7991775862    -5.4412532525    -6.6271417989
 H     -2.4883046142    -4.0328635670    -5.7760547334
 F     -2.4042036018    -3.4256730405    -5.0940461673
 H     -2.8940237584    -4.1719414704    -3.6800565629
 F     -3.1942090751    -4.7931396196    -3.0759947821
 H     -3.4901883780    -6.2038043428    -3.9266319082
 F     -3.5648714136    -6.8162967322    -4.6049861792
          8
Energy: -28.931245686890634 Kcal/mole
 H     -3.0946846321    -6.0665659831    -6.0250220886
 F     -2.7993203560    -5.4412181096    -6.6271757081
 H     -2.4857884279    -4.0358556322    -5.7736850511
 F     -2.4043370797    -3.4255143184    -5.0941718734
 H     -2.8892145518    -4.1685908896    -3.6741607776
 F     -3.1944641924    -4.7933173601    -3.0763075398
 H     -3.4920677799    -6.2028679045    -3.9272742578
 F     -3.5647717157    -6.8163464081    -4.6049521041
          8
Energy: -28.93121473782608 Kcal/mole
 H     -3.0964097782    -6.0688778384    -6.0282857903
 F     -2.7992288410    -5.4410954710    -6.6270025762
 H     -2.4863498635    -4.0353100614    -5.7741071741
 F     -2.4043072968    -3.4255432597    -5.0941494808
 H     -2.8912429346    -4.1700953131    -3.6767569158
 F     -3.1943565914    -4.7932375539    -3.0761698207
 H     -3.4918920498    -6.2039661440    -3.9263006099
 F     -3.5647810378    -6.8162881491    -4.6050037538
          8
Energy: -28.930689244099113 Kcal/mole
 H     -3.0946563649    -6.0689288006    -6.0274721850
 F     -2.7993218555    -5.4410927676    -6.6270457361
 H     -2.4887879965    -4.0335306423    -5.7754003758
 F     -2.4041779595    -3.4256376537    -5.0940808794
 H     -2.8861918178    -4.1713035833    -3.6754361096
 F     -3.1946245415    -4.7931734580    -3.0762398864
 H     -3.4918878994    -6.2061772902    -3.9243130301
 F     -3.5647812579    -6.8161708529    -4.6051091904
          8
Energy: -28.93110624664567 Kcal/mole
 H     -3.0929231949    -6.0692627177    -6.0269710836
 F     -2.7994137962    -5.4410750541    -6.6270723184
 H     -2.4892325244    -4.0350531660    -5.7749630690
 F     -2.4077143777    -3.4239981822    -5.0960996082
 H     -2.8907546795    -4.1693699310    -3.6757563236
 F     -3.1943824922    -4.7932760338    -3.0762228998
 H     -3.4876839043    -6.2058358659    -3.9250832890
 F     -3.5650042702    -6.8161889646    -4.6050683299
          8
Energy: -28.931279354864245 Kcal/mole
 H     -3.0962972319    -6.0673264841    -6.0266078631
 F     -2.7992348113    -5.4411777668    -6.6270915864
 H     -2.4937777538    -4.0337120744    -5.7756066734
 F     -2.4074732638    -3.4240693240    -5.0960654664
 H     -2.8897721422    -4.1691164653    -3.6749935423
 F     -3.1944346135    -4.7932894796    -3.0762633636
 H     -3.4891294975    -6.2047827864    -3.9258671065
 F     -3.5649275848    -6.8162448281    -4.6050267502
          8
Energy: -28.931369941766377 Kcal/mole
 H     -3.0933198566    -6.0681669869    -6.0260200615
 F     -2.7993927542    -5.4411331800    -6.6271227679
 H     -2.4917148878    -4.0333162737    -5.7762200438
 F     -2.4075826941    -3.4240903203    -5.0960329285
 H     -2.8917741261    -4.1706954014    -3.6776463739
 F     -3.1943284129    -4.7932057206    -3.0761226370
 H     -3.4902203513    -6.2040153242    -3.9264379556
 F     -3.5648697175    -6.8162855402    -4.6049964680
          8
Energy: -28.931274406066166 Kcal/mole
 H     -3.0956398345    -6.0663181190    -6.0252341072
 F     -2.7992696848    -5.4412312582    -6.6271644610
 H     -2.4877801739    -4.0332482707    -5.7767554263
 F     -2.4077914216    -3.4240939277    -5.0960045277
 H     -2.8911004065    -4.1707464768    -3.6773598924
 F     -3.1943641522    -4.7932030112    -3.0761378342
 H     -3.4926765788    -6.2047792854    -3.9254842519
 F     -3.5647394203    -6.8162450138    -4.6050470598
          8
Energy: -28.931283279526895 Kcal/mole
 H     -3.0917596498    -6.0661518546    -6.0224185922
 F     -2.7923124574    -5.4428641830    -6.6246916676
 H     -2.4883536872    -4.0341264960    -5.7759007624
 F     -2.4077609980    -3.4240473399    -5.0960498657
 H     -2.8903605441    -4.1700532950    -3.6762670866
 F     -3.1944034002    -4.7932397829    -3.0761958050
 H     -3.4893448673    -6.2058008642    -3.9249279959
 F     -3.5649161599    -6.8161908214    -4.6050765678
          8
Energy: -28.931143714244314 Kcal/mole
 H     -3.0905542665    -6.0688669951    -6.0246411928
 F     -2.7923764002    -5.4427201511    -6.6245737638
 H     -2.4889369352    -4.0348043250    -5.7752223810
 F     -2.4077300581    -3.4240113826    -5.0960858523
 H     -2.8914158568    -4.1718989763    -3.6788998012
 F     -3.1973258968    -4.7939945036    -3.0786455197
 H     -3.4914446905    -6.2031371026    -3.9270977916
 F     -3.5648047691    -6.8163321278    -4.6049614652
          8
Energy: -28.93106143659446 Kcal/mole
 H     -3.0887969435    -6.0690600887    -6.0239724364
 F     -2.7924696221    -5.4427099079    -6.6246092398
 H     -2.4888931439    -4.0351571890    -5.7749100895
 F     -2.4077323811    -3.4239926640    -5.0961024186
 H     -2.8938376123    -4.1674848744    -3.6755270804
 F     -3.1971974282    -4.7942286615    -3.0788244347
 H     -3.4904324427    -6.2033916731    -3.9269779126
 F     -3.5648584666    -6.8163186234    -4.6049678245
          8
Energy: -28.93099674680502 Kcal/mole
 H     -3.0891717773    -6.0683017552    -6.0233675128
 F     -2.7924497381    -5.4427501358    -6.6246413296
 H     -2.4866062820    -4.0348788531    -5.7754297888
 F     -2.4078536938    -3.4240074291    -5.0960748497
 H     -2.8918496070    -4.1677373733    -3.6767646631
 F     -3.1948830528    -4.7938782833    -3.0792637915
 H     -3.4926840597    -6.2035312532    -3.9266086153
 F     -3.5647390235    -6.8163112190    -4.6049874149
          8
Energy: -28.931123524636178 Kcal/mole
 H     -3.0910038927    -6.0689395901    -6.0249406934
 F     -2.7923525486    -5.4427163001    -6.6245578760
 H     -2.4875813034    -4.0349328318    -5.7752674650
 F     -2.4078019712    -3.4240045656    -5.0960834606
 H     -2.8915244471    -4.1709594726    -3.6799580685
 F     -3.1949003018    -4.7937073583    -3.0790943888
 H     -3.4916638183    -6.2015332392    -3.9285285562
 F     -3.5647931449    -6.8164172090    -4.6048855664
          8
Energy: -28.93118121388906 Kcal/mole
 H     -3.0876131743    -6.0690651121    -6.0233951766
 F     -2.7925324183    -5.4427096414    -6.6246398621
 H     -2.4879567453    -4.0346098961    -5.7755136089
 F     -2.4077820549    -3.4240216966    -5.0960704033
 H     -2.8920956374    -4.1704822433    -3.6797513288
 F     -3.1948700014    -4.7937326742    -3.0791053558
 H     -3.4920815650    -6.2028365983    -3.9273011208
 F     -3.5647709844    -6.8163480688    -4.6049506791
          8
Energy: -28.930957638314084 Kcal/mole
 H     -3.0894973741    -6.0672035615    -6.0223876452
 F     -2.7924324659    -5.4428083924    -6.6246933093
 H     -2.4869937888    -4.0354151711    -5.7749020592
 F     -2.4078331375    -3.4239789787    -5.0961028446
 H     -2.8893390422    -4.1684994536    -3.6762837239
 F     -3.1950162325    -4.7938378567    -3.0792893043
 H     -3.4897955442    -6.2042336631    -3.9262878744
 F     -3.5648922525    -6.8162739578    -4.6050044294
          8
Energy: -28.930964203151802 Kcal/mole
 H     -3.0893706320    -6.0668351446    -6.0219435108
 F     -2.7924391893    -5.4428279361    -6.6247168696
 H     -2.4873436516    -4.0358962176    -5.7744275014
 F     -2.4078145781    -3.4239534603    -5.0961280188
 H     -2.8917667432    -4.1692114773    -3.6782634991
 F     -3.1948874485    -4.7938000854    -3.0791842818
 H     -3.4883210569    -6.2058261438    -3.9250198831
 F     -3.5649704707    -6.8161894804    -4.6050716934
          8
Energy: -28.93102062911231 Kcal/mole
 H     -3.0900353383    -6.0686121687    -6.0241178482
 F     -2.7924039281    -5.4427336690    -6.6246015260
 H     -2.4876728557    -4.0359089647    -5.7743773168
 F     -2.4077971146    -3.4239527840    -5.0961306810
 H     -2.8907737321    -4.1678305205    -3.6763154202
 F     -3.1949401255    -4.7938733420    -3.0792876229
 H     -3.4908651408    -6.2045623156    -3.9258742666
 F     -3.5648355129    -6.8162565235    -4.6050263704
          8
Energy: -28.931215413741228 Kcal/mole
 H     -3.0928782114    -6.0681471304    -6.0250502596
 F     -2.7922531203    -5.4427583382    -6.6245520638
 H     -2.4864919411    -4.0350904696    -5.7752526902
 F     -2.4078597594    -3.4239962033    -5.0960842444
 H     -2.8927601866    -4.1687677115    -3.6783024557
 F     -3.1948347486    -4.7938236262    -3.0791822152
 H     -3.4892609757    -6.2040440087    -3.9265183356
 F     -3.5649206102    -6.8162840185    -4.6049922040
          8
Energy: -28.93100392401567 Kcal/mole
 H     -3.0915125779    -6.0669860695    -6.0231602143
 F     -2.7923255640    -5.4428199298    -6.6246523263
 H     -2.4902005166    -4.0345692101    -5.7752814610
 F     -2.4076630280    -3.4240238549    -5.0960827182
 H     -2.8925002798    -4.1691244900    -3.6785434125
 F     -3.1948485361    -4.7938046999    -3.0791694330
 H     -3.4869895171    -6.2048127605    -3.9260825412
 F     -3.5650411058    -6.8162432380    -4.6050153219
          8
Energy: -28.930416341586692 Kcal/mole
 H     -3.0914267485    -6.0701615783    -6.0264309335
 F     -2.7923301170    -5.4426514764    -6.6244788222
 H     -2.4924231597    -4.0373840266    -5.7724649449
 F     -2.4075451219    -3.4238745354    -5.0962321279
 H     -2.8918856260    -4.1685830196    -3.6776677616
 F     -3.1948811421    -4.7938334237    -3.0792158843
 H     -3.4913109730    -6.2032938618    -3.9269705041
 F     -3.5648118625    -6.8163238121    -4.6049682175
          8
Energy: -28.931017369399797 Kcal/mole
 H     -3.0899374500    -6.0670030922    -6.0223970792
 F     -2.7924091209    -5.4428190268    -6.6246928089
 H     -2.4875445217    -4.0343256456    -5.7758174302
 F     -2.4078039224    -3.4240367755    -5.0960542863
 H     -2.8914050759    -4.1690823019    -3.6779456092
 F     -3.1949066341    -4.7938069379    -3.0792011451
 H     -3.4877825625    -6.2056167427    -3.9252688266
 F     -3.5649990366    -6.8162005886    -4.6050584876
          8
Energy: -28.93111336997802 Kcal/mole
 H     -3.0913563095    -6.0681254156    -6.0242670104
 F     -2.7923338537    -5.4427594902    -6.6245936133
 H     -2.4872100075    -4.0357959842    -5.7745335683
 F     -2.4078216676    -3.4239587774    -5.0961223922
 H     -2.8885779481    -4.1699630519    -3.6774235639
 F     -3.1950566067    -4.7937602162    -3.0792288384
 H     -3.4891089803    -6.2026645377    -3.9277828253
 F     -3.5649286732    -6.8163571963    -4.6049251257
          8
Energy: -28.931243644789134 Kcal/mole
 H     -3.0897211584    -6.0697349475    -6.0251344841
 F     -2.7924205947    -5.4426741082    -6.6245475959
 H     -2.4881886452    -4.0355297034    -5.7746583868
 F     -2.4077697531    -3.4239729030    -5.0961157708
 H     -2.8917134122    -4.1709637149    -3.6800578336
 F     -3.1948902776    -4.7937071333    -3.0790890965
 H     -3.4902041275    -6.2029265039    -3.9274238683
 F     -3.5648705781    -6.8163432996    -4.6049441676
          8
Energy: -28.931255647963383 Kcal/mole
 H     -3.0898579677    -6.0671591027    -6.0225195358
 F     -2.7924133372    -5.4428107508    -6.6246863128
 H     -2.4872894503    -4.0360039095    -5.7743366821
 F     -2.4078174533    -3.4239477474    -5.0961328365
 H     -2.8833906152    -4.1708756235    -3.6770879709
 F     -3.1864456818    -4.7943952282    -3.0768630722
 H     -3.4868774396    -6.2051121287    -3.9258259524
 F     -3.5650470513    -6.8162273572    -4.6050289333
          8
Energy: -28.931059590642377 Kcal/mole
 H     -3.0943037654    -6.0673695911    -6.0249563247
 F     -2.7921774979    -5.4427995849    -6.6245570468
 H     -2.4852480041    -4.0362351990    -5.7743638905
 F     -2.4079257473    -3.4239354781    -5.0961313932
 H     -2.8859720815    -4.1696824300    -3.6771447611
 F     -3.1863087410    -4.7944585244    -3.0768600596
 H     -3.4870105391    -6.2027751864    -3.9279209557
 F     -3.5650399906    -6.8163513266    -4.6049177982
          8
Energy: -28.931277261979062 Kcal/mole
 H     -3.0914772033    -6.0685656837    -6.0247862783
 F     -2.7923274405    -5.4427361350    -6.6245660674
 H     -2.4884060366    -4.0358398222    -5.7743529347
 F     -2.4077582210    -3.4239564519    -5.0961319744
 H     -2.8850240249    -4.1720751518    -3.6791514279
 F     -3.1863590332    -4.7943315960    -3.0767536105
 H     -3.4869114341    -6.2043544755    -3.9265045439
 F     -3.5650452479    -6.8162675490    -4.6049929356
          8
Energy: -28.931067012747974 Kcal/mole
 H     -3.0941050118    -6.0681148988    -6.0256334467
 F     -2.7921880414    -5.4427600481    -6.6245211270
 H     -2.4860985012    -4.0359918769    -5.7744859781
 F     -2.4078806304    -3.4239483857    -5.0961249167
 H     -2.8836814495    -4.1701733591    -3.6765044892
 F     -3.1864302538    -4.7944324817    -3.0768940245
 H     -3.4884984835    -6.2031397098    -3.9274211024
 F     -3.5649610586    -6.8163319895    -4.6049443143
          8
Energy: -28.931490672595686 Kcal/mole
 H     -3.0907037576    -6.0683356557    -6.0241614057
 F     -2.7923684700    -5.4427483374    -6.6245992154
 H     -2.4890508994    -4.0348353298    -5.7751808570
 F     -2.4077240125    -3.4240097379    -5.0960880550
 H     -2.8851024191    -4.1696936637    -3.6767205191
 F     -3.1863548746    -4.7944579285    -3.0768825646
 H     -3.4884920283    -6.2037561260    -3.9268644796
 F     -3.5649614011    -6.8162992900    -4.6049738419
          8
Energy: -28.931114160087276 Kcal/mole
 H     -3.0919054112    -6.0670570597    -6.0234294820
 F     -2.7923047251    -5.4428161640    -6.6246380423
 H     -2.4867818712    -4.0350024711    -5.7752982284
 F     -2.4078443792    -3.4240008714    -5.0960818287
 H     -2.8829029026    -4.1711783318    -3.6771558869
 F     -3.1864715539    -4.7943791702    -3.0768594694
 H     -3.4846033756    -6.2051792310    -3.9260313445
 F     -3.5651676851    -6.8162237976    -4.6050180378
          8
Energy: -28.93119706027406 Kcal/mole
 H     -3.0813519169    -6.0705980955    -6.0209744540
 F     -2.7837431602    -5.4464896493    -6.6233088091
 H     -2.4849082340    -4.0359270567    -5.7746805719
 F     -2.4079437714    -3.4239518243    -5.0961145940
 H     -2.8866326104    -4.1702359711    -3.6780499945
 F     -3.1862737015    -4.7944291603    -3.0768120390
 H     -3.4883592282    -6.2061505159    -3.9247245989
 F     -3.5649684458    -6.8161722732    -4.6050873576
          8
Energy: -28.931455937393054 Kcal/mole
 H     -3.0840744189    -6.0700178938    -6.0217257123
 F     -2.7835987378    -5.4465204276    -6.6232689566
 H     -2.4863004212    -4.0362211456    -5.7742557272
 F     -2.4078699190    -3.4239362236    -5.0961371310
 H     -2.8852661502    -4.1698907586    -3.6770079036
 F     -3.1863461890    -4.7944474730    -3.0768673195
 H     -3.4884438161    -6.2043112536    -3.9263688957
 F     -3.5649639586    -6.8162698418    -4.6050001314
          8
Energy: -28.931154575428394 Kcal/mole
 H     -3.0827129597    -6.0715096137    -6.0225960481
 F     -2.7836709601    -5.4464412953    -6.6232227873
 H     -2.4855726820    -4.0360419881    -5.7745011783
 F     -2.4079085239    -3.4239457275    -5.0961241104
 H     -2.8852941601    -4.1702392864    -3.6773844314
 F     -3.1863447032    -4.7944289844    -3.0768473456
 H     -3.4919409319    -6.2033780645    -3.9268264067
 F     -3.5647784447    -6.8163193453    -4.6049758615
          8
Energy: -28.931355754281157 Kcal/mole
 H     -3.0863686236    -6.0717323718    -6.0246634704
 F     -2.7834770356    -5.4464294785    -6.6231131153
 H     -2.4841212138    -4.0374779283    -5.7733674752
 F     -2.4079855210    -3.4238695542    -5.0961842507
 H     -2.8868991639    -4.1696277474    -3.6775507876
 F     -3.1862595614    -4.7944614252    -3.0768385208
 H     -3.4885798383    -6.2036077941    -3.9269886022
 F     -3.5649567429    -6.8163071587    -4.6049672574
          8
Energy: -28.931080551024223 Kcal/mole
 H     -3.0835353385    -6.0717307808    -6.0232366594
 F     -2.7836273348    -5.4464295629    -6.6231888043
 H     -2.4863708258    -4.0380944678    -5.7725511448
 F     -2.4078661842    -3.4238368482    -5.0962275552
 H     -2.8876890766    -4.1673942275    -3.6756130178
 F     -3.1862176584    -4.7945799082    -3.0769413150
 H     -3.4856586968    -6.2052325542    -3.9258590280
 F     -3.5651117027    -6.8162209689    -4.6050271787
          8
Energy: -28.931484405228503 Kcal/mole
 H     -3.0844005774    -6.0710453912    -6.0229559705
 F     -2.7835814359    -5.4464659213    -6.6232036942
 H     -2.4868387938    -4.0355709164    -5.7747797962
 F     -2.4078413596    -3.4239707167    -5.0961093304
 H     -2.8856714561    -4.1698282167    -3.6771459879
 F     -3.1863246885    -4.7944507907    -3.0768599945
 H     -3.4869045752    -6.2041246764    -3.9267126589
 F     -3.5650456118    -6.8162797393    -4.6049818956
          8
Energy: -28.931366447187514 Kcal/mole
 H     -3.0851861123    -6.0727035432    -6.0253861592
 F     -2.7830986930    -5.4476553851    -6.6245080093
 H     -2.4833336911    -4.0364221074    -5.7744105205
 F     -2.4080272972    -3.4239255630    -5.0961289196
 H     -2.8854475701    -4.1688451840    -3.6760089425
 F     -3.1863365651    -4.7945029383    -3.0769203121
 H     -3.4873695562    -6.2049619370    -3.9259046601
 F     -3.5650209456    -6.8162353245    -4.6050247581
          8
Energy: -28.93141746994445 Kcal/mole
 H     -3.0849439184    -6.0725011005    -6.0250530228
 F     -2.7831115409    -5.4476661243    -6.6245256814
 H     -2.4827936029    -4.0362677595    -5.7746095863
 F     -2.4080559477    -3.4239337508    -5.0961183596
 H     -2.8868016605    -4.1694876602    -3.6773564266
 F     -3.1862647338    -4.7944688565    -3.0768488312
 H     -3.4880001647    -6.2055446087    -3.9253089418
 F     -3.5649874933    -6.8162044152    -4.6050563595
          8
Energy: -28.93121665130451 Kcal/mole
 H     -3.0853590543    -6.0702806506    -6.0229559945
 F     -2.7830895189    -5.4477839140    -6.6246369239
 H     -2.4814242722    -4.0365043657    -5.7745453845
 F     -2.4081285875    -3.4239211994    -5.0961217654
 H     -2.8885894688    -4.1698737876    -3.6786454505
 F     -3.1861698947    -4.7944483733    -3.0767804515
 H     -3.4885333710    -6.2057244066    -3.9250873111
 F     -3.5649592079    -6.8161948773    -4.6050681165
          8
Energy: -28.931467013533563 Kcal/mole
 H     -3.0850906806    -6.0721170565    -6.0247268670
 F     -2.7831037555    -5.4476864969    -6.6245429832
 H     -2.4831126125    -4.0362228652    -5.7746148828
 F     -2.4080390249    -3.4239361324    -5.0961180786
 H     -2.8860764460    -4.1690288319    -3.6765159815
 F     -3.1863032047    -4.7944931962    -3.0768934149
 H     -3.4882254785    -6.2049376638    -3.9258292141
 F     -3.5649755409    -6.8162366122    -4.6050287603
          8
Energy: -28.931070589901992 Kcal/mole
 H     -3.0833679511    -6.0718065396    -6.0235401980