          6
Energy: -0.2459481271739781 Kcal/mole
 He    -5.8379068185    -6.8360761615    -5.4529879137
 He    -5.7221524533    -3.9919280312    -5.2944051817
 He    -3.8913259302    -3.2176873288    -3.2426271585
 He    -3.1306286873    -3.0494105654    -6.0132535374
 He    -3.3642769959    -5.6074837904    -4.7406804743
 He    -5.5440705605    -5.5462537619    -2.9103646393
