          6
Energy: -0.004500024586434617 Kcal/mole
 He    -3.4237292956    -1.6477403477     2.4526776175
 He    -3.8411678973     3.8541381578     4.2936610691
 He     1.3045687486    -1.3667195135    -0.7834267554
 He    -1.0454171188     4.5757695220    -0.1866645553
 He     4.3854757227     4.1451418690    -1.5266803294
 He    -3.9243328521     0.8422968438    -4.5446290342
