          5
Energy: -0.09572728329179843 Kcal/mole
 Ar     1.1500869544    -6.6291959638    -0.9479992843
 Ar    -1.3227604106    -7.0250761318     7.0444779485
 Ar    -6.4725661752     3.2598435380     6.6124033258
 Ar    -0.8062656683     2.5758397147     3.1733118648
 Ar     0.8972695268     6.0081442324    -0.2797134556
          5
Energy: -0.16305731392467 Kcal/mole
 Ar     5.1919868069    -8.2368132484     0.0670657461
 Ar    -2.5075384698     4.2835917487    -6.2728285353
 Ar     7.5104741059     2.9120905436     3.6117826596
 Ar     2.7576153671     5.4314445746     3.1579455774
 Ar    -0.5800797069     2.4760900527     1.2044162112
          5
Energy: -0.1828126311424854 Kcal/mole
 Ar    -5.9762854684    -5.4822399007    -7.7586614899
 Ar     2.5918907064    -7.1045943736     0.0540236124
 Ar     2.7631280920    -6.9588440429     8.3590175997
 Ar    -5.4075581516    -7.9484062766    -4.2201522007
 Ar     2.0394140582    -4.3162611279    -8.3390112653
          5
Energy: -0.3249362525642705 Kcal/mole
 Ar    -0.1575767320     6.9334132110     7.6877090513
 Ar     3.6291427962     5.0186412645     7.8337985457
 Ar     8.9303840106     5.9096369056    -1.8268031902
 Ar     7.4390414013     5.8162381868     5.3690764399
 Ar     1.3966523139    -7.7207659084     5.5933280680
          5
Energy: -1.6198481138493355 Kcal/mole
 Ar     6.6994324272     8.0908640567     5.3060994995
 Ar     7.5937613658     4.5305888732     7.4376376565
 Ar     6.1468904343     0.8718732633     7.3914497690
 Ar     4.0251437271     4.2325184205     6.0109706505
 Ar     7.1403256520     4.9733789143     3.4592795607
          5
Energy: -1.5703574293137224 Kcal/mole
 Ar     5.5429917584     8.4479624373    -3.7337668582
 Ar     4.9363590822     4.5075325945    -5.0017353254
 Ar     5.6886023531     8.0154291640    -7.3148199482
 Ar     1.8247991253     7.6690124421    -6.5420070409
 Ar     8.6822113379     6.4566975208    -5.9791793255
          5
Energy: -1.6406638318392162 Kcal/mole
 Ar     0.3019790542     0.0879349469     1.0580183002
 Ar     1.1410801961     3.8764134940    -0.4877559669
 Ar    -3.0016163945     1.3386461014    -0.8864862624
 Ar     0.3149503994    -0.0808965947    -2.7066212704
 Ar     3.8614207387     1.5007892115    -0.7341138598
          5
Energy: -1.8481130156543708 Kcal/mole
 Ar     3.5628431019     1.4066695583    -0.1045859000
 Ar     0.7185214060     2.9262025170    -1.9931309522
 Ar     2.5420441961    -0.1968252368    -3.7047141911
 Ar     0.4333472856    -1.6497283361    -0.5975833652
 Ar     4.3150028750     3.2321074977    -3.4113340405
          5
Energy: -2.0965029830701543 Kcal/mole
 Ar     3.4247985443     1.6948588852    -2.6742160745
 Ar     0.5982673486    -0.3650851667    -1.3238300182
 Ar     3.6208729268    -2.0391398581    -2.8124614451
 Ar     3.8475194346    -0.3630705687     0.5002253832
 Ar     1.3327920496    -0.2822762375    -5.2029056730
          5
Energy: -2.128716840724431 Kcal/mole
 Ar     3.3861245623     1.7150649290    -2.6761237255
 Ar     0.5159414477    -0.4230943671    -1.3687207694
 Ar     3.6148935802    -2.0900046134    -2.8143030923
 Ar     3.8024061256    -0.3077828348     0.5426865141
 Ar     1.2224447056    -0.2270712898    -5.1152544275
