          5
Energy: -2.128961827258758 Kcal/mole
 Ar    -1.7553577820    -0.7554803189     2.7113157078
 Ar     1.7926211035    -1.8615794834     1.8147488052
 Ar     0.3221664691    -2.7190738795     5.2264029965
 Ar    -1.8756330472     0.1447724973     6.4260197970
 Ar     1.2500225795     0.8940080519     4.3926069382
