          6
Energy: -17.579003373244518 Kcal/mole
 H     -2.2110311113    -2.8569190415    -4.7370316940
 F     -1.4490971369    -2.8243478030    -5.2462317854
 H     -4.0410550407    -2.7045214006    -5.5945865513
 F     -3.9716350997    -2.8080296676    -4.6860955439
 H     -2.3682221367    -2.6243527472    -6.7421740098
 F     -3.1927629070    -2.5517353685    -7.1368235180
          6
Energy: -17.579337561558305 Kcal/mole
 H     -2.2089683574    -2.8529319441    -4.7337222487
 F     -1.4492065612    -2.8245593093    -5.2464073438
 H     -4.0317126509    -2.7023857499    -5.5950037732
 F     -3.9721306919    -2.8081429589    -4.6860734112
 H     -2.3701528952    -2.6237053602    -6.7380491881
 F     -3.1926604848    -2.5517697109    -7.1370423303
          6
Energy: -17.579606660137188 Kcal/mole
 H     -2.2117702252    -2.8601868564    -4.7383601151
 F     -1.4490579286    -2.8241744530    -5.2461613157
 H     -4.0348093174    -2.7056385312    -5.5951675542
 F     -3.9719664209    -2.8079704064    -4.6860647230
 H     -2.3679970315    -2.6244848106    -6.7426690400
 F     -3.1927748483    -2.5517283629    -7.1367972578
          6
Energy: -17.579367120998086 Kcal/mole
 H     -2.2077466719    -2.8611962788    -4.7324425165
 F     -1.4492713688    -2.8241209055    -5.2464752307
 H     -4.0363985647    -2.7062290555    -5.5951225010
 F     -3.9718821150    -2.8079390805    -4.6860671130
 H     -2.3701656282    -2.6207423725    -6.7375007165
 F     -3.1926598093    -2.5519268906    -7.1370714254
          6
Energy: -17.57987175230909 Kcal/mole
 H     -2.2113447636    -2.8561479024    -4.7374525964
 F     -1.4490804984    -2.8243887102    -5.2462094575
 H     -4.0341545291    -2.6998975779    -5.5945470351
 F     -3.9720011559    -2.8082749507    -4.6860976401
 H     -2.3677797046    -2.6256167759    -6.7433351616
 F     -3.1927863770    -2.5516683147    -7.1367619216
          6
Energy: -17.57923147938544 Kcal/mole
 H     -2.2120428565    -2.8604088456    -4.7387856636
 F     -1.4490434662    -2.8241626770    -5.2461387414
 H     -4.0345039797    -2.6996693547    -5.5944957974
 F     -3.9719826183    -2.8082870574    -4.6861003582
 H     -2.3666695757    -2.6228108612    -6.7388251191
 F     -3.1877939633    -2.5477554166    -7.1400861568
          6
Energy: -17.579949005870333 Kcal/mole
 H     -2.2098073813    -2.8585586577    -4.7353128460
 F     -1.4491620530    -2.8242608252    -5.2463229663
 H     -4.0349153815    -2.7019348478    -5.5947352632
 F     -3.9719607944    -2.8081668782    -4.6860876551
 H     -2.3659196522    -2.6208946890    -6.7400087085
 F     -3.1878337450    -2.5478570651    -7.1400233701
          6
Energy: -17.57922862252832 Kcal/mole
 H     -2.2096521991    -2.8594900191    -4.7351453135
 F     -1.4491702850    -2.8242114186    -5.2463318535
 H     -4.0339849899    -2.7124510376    -5.5959637370
 F     -3.9720101495    -2.8076090187    -4.6860224874
 H     -2.3640277159    -2.6322585335    -6.7435311967
 F     -3.1874534488    -2.5697753959    -7.1422227066
          6
Energy: -17.579815734985743 Kcal/mole
 H     -2.2101099393    -2.8549807268    -4.7355364010
 F     -1.4491460030    -2.8244506261    -5.2463111072
 H     -4.0363185021    -2.7079963096    -5.5953240769
 F     -3.9718863621    -2.8078453317    -4.6860564199
 H     -2.3641746002    -2.6364661133    -6.7439108466
 F     -3.1874456569    -2.5695521936    -7.1422025671
          6
Energy: -17.579925574787012 Kcal/mole
 H     -2.2096895632    -2.8549787364    -4.7349105819
 F     -1.4491683029    -2.8244507317    -5.2463443055
 H     -4.0379534060    -2.7084565578    -5.5952570930
 F     -3.9717996342    -2.8078209166    -4.6860599732
 H     -2.3660568233    -2.6348149416    -6.7392765829
 F     -3.1884521397    -2.5665576547    -7.1391464198
          6
Energy: -17.579573310867374 Kcal/mole
 H     -2.2091807161    -2.8564122089    -4.7342423143
 F     -1.4491952961    -2.8243746893    -5.2463797556
 H     -4.0339024984    -2.7102505291    -5.5957363994
 F     -3.9720145255    -2.8077257506    -4.6860345471
 H     -2.3672309358    -2.6389289913    -6.7375919373
 F     -3.1883898557    -2.5663394139    -7.1392357864
          6
Energy: -17.58003586748339 Kcal/mole
 H     -2.2105042376    -2.8545574797    -4.7360992088
 F     -1.4491250863    -2.8244730784    -5.2462812516
 H     -4.0349841643    -2.7077398286    -5.5953893938
 F     -3.9719571456    -2.8078589374    -4.6860529550
 H     -2.3668169988    -2.6349244480    -6.7377357577
 F     -3.1884118141    -2.5665518457    -7.1392281571
          6
Energy: -17.579648596429877 Kcal/mole
 H     -2.2102895854    -2.8592705884    -4.7360797641
 F     -1.4491364731    -2.8242230589    -5.2462822831
 H     -4.0340457791    -2.7033129519    -5.5949550631
 F     -3.9720069248    -2.8080937730    -4.6860759952
 H     -2.3671050179    -2.6345969935    -6.7370913989
 F     -3.1883965353    -2.5665692164    -7.1392623388
          6
Energy: -17.579560020459212 Kcal/mole
 H     -2.2090013815    -2.8529051868    -4.7337697114
 F     -1.4492048094    -2.8245607287    -5.2464048260
 H     -4.0379464202    -2.7138818369    -5.5969820481
 F     -3.9741170971    -2.8088416080    -4.6871482944
 H     -2.3672770563    -2.6340232172    -6.7366437485
 F     -3.1883874091    -2.5665996539    -7.1392860856
          6
Energy: -17.58011266097975 Kcal/mole
 H     -2.2103993204    -2.8591578613    -4.7362357810
 F     -1.4491306520    -2.8242290388    -5.2462740067
 H     -4.0370975138    -2.7094627145    -5.5965685600
 F     -3.9741621297    -2.8090760323    -4.6871702290
 H     -2.3658384366    -2.6338413141    -6.7395609501
 F     -3.1884637246    -2.5666093034    -7.1391313348
          6
Energy: -17.579874849428677 Kcal/mole
 H     -2.2089140083    -2.8489402993    -4.7293332004
 F     -1.4486498643    -2.8185547205    -5.2411575335
 H     -4.0331026439    -2.7124129559    -5.5971537118
 F     -3.9743740483    -2.8089195288    -4.6871391881
 H     -2.3659804654    -2.6331243713    -6.7391488392
 F     -3.1884561903    -2.5666473356    -7.1391531964
          6
Energy: -17.57991266522521 Kcal/mole
 H     -2.2113697528    -2.8548085478    -4.7333878879
 F     -1.4485195928    -2.8182434235    -5.2409424417
 H     -4.0377618588    -2.7077082064    -5.5963283278
 F     -3.9741268877    -2.8091691049    -4.6871829728
 H     -2.3647490093    -2.6304074072    -6.7412468911
 F     -3.1885215162    -2.5667914643    -7.1390418995
          6
Energy: -17.579888166037733 Kcal/mole
 H     -2.2083490653    -2.8551401641    -4.7289021641
 F     -1.4486798332    -2.8182258320    -5.2411803990
 H     -4.0340078381    -2.7068794849    -5.5964900276
 F     -3.9743260298    -2.8092130666    -4.6871743950
 H     -2.3660303817    -2.6327099678    -6.7389776008
 F     -3.1884535423    -2.5666693187    -7.1391622802
          6
Energy: -17.580218389323875 Kcal/mole
 H     -2.2107383484    -2.8541780839    -4.7323953207
 F     -1.4485530873    -2.8182768681    -5.2409950951
 H     -4.0348124546    -2.7105938892    -5.5968467961
 F     -3.9742833468    -2.8090160261    -4.6871554692
 H     -2.3653627144    -2.6307864636    -6.7400392401
 F     -3.1884889605    -2.5667713562    -7.1391059626
          6
Energy: -17.57976319907891 Kcal/mole
 H     -2.2108349796    -2.8559377202    -4.7326676334
 F     -1.4485479612    -2.8181835235    -5.2409806495
 H     -4.0359486813    -2.7084893544    -5.5965401328
 F     -3.9742230726    -2.8091276668    -4.6871717370
 H     -2.3639773028    -2.6314361052    -6.7430158185
 F     -3.1885624534    -2.5667368942    -7.1389480620
          6
Energy: -17.579903469889075 Kcal/mole
 H     -2.2103558874    -2.8487855820    -4.7314726553
 F     -1.4485733760    -2.8185629279    -5.2410440403
 H     -4.0350858542    -2.7080759406    -5.5965524174
 F     -3.9742688435    -2.8091495974    -4.6871710853
 H     -2.3647791291    -2.6299061675    -6.7408304762
 F     -3.1879458477    -2.5651034816    -7.1396865471
          6
Energy: -17.579381904110278 Kcal/mole
 H     -2.2103884336    -2.8449630621    -4.7313097230
 F     -1.4485716495    -2.8187657037    -5.2410526835
 H     -4.0390074899    -2.7122620295    -5.5991038408
 F     -3.9733153552    -2.8044444457    -4.6891170576
 H     -2.3639378239    -2.6440264355    -6.7396330472
 F     -3.1855110618    -2.5773722435    -7.1414584239
          6
Energy: -17.579860122931677 Kcal/mole
 H     -2.2120397538    -2.8533119315    -4.7342907096
 F     -1.4484840508    -2.8183228155    -5.2408945491
 H     -4.0345728145    -2.7089140381    -5.5990669611
 F     -3.9735506045    -2.8046220489    -4.6891190140
 H     -2.3633817312    -2.6373390370    -6.7397197548
 F     -3.1855405612    -2.5777269945    -7.1414538243
          6
Energy: -17.579557558098145 Kcal/mole
 H     -2.2100389365    -2.8558328111    -4.7314682206
 F     -1.4485901895    -2.8181890886    -5.2410442756
 H     -4.0338331408    -2.7022384880    -5.5983880637
 F     -3.9735898425    -2.8049761714    -4.6891550279
 H     -2.3645547408    -2.6231902003    -6.7356215427
 F     -3.1844039195    -2.5560308068    -7.1408695408
          6
Energy: -17.57952301790607 Kcal/mole
 H     -2.2107324698    -2.8559874726    -4.7325176376
 F     -1.4485533992    -2.8181808842    -5.2409886064
 H     -4.0359103129    -2.7027831748    -5.5983093082
 F     -3.9734796533    -2.8049472770    -4.6891592057
 H     -2.3618603766    -2.6270913334    -6.7417977357
 F     -3.1845468493    -2.5558238607    -7.1405419080
          6
Energy: -17.579660762098342 Kcal/mole
 H     -2.2087808984    -2.8519413356    -4.7293229252
 F     -1.4486569255    -2.8183955224    -5.2411580785
 H     -4.0315078103    -2.7015637896    -5.5984624990
 F     -3.9737131959    -2.8050119626    -4.6891510793
 H     -2.3638758624    -2.6262109309    -6.7375126771
 F     -3.1844399324    -2.5558705640    -7.1407692205
          6
Energy: -17.580212265786713 Kcal/mole
 H     -2.2112913615    -2.8521181345    -4.7330838554
 F     -1.4485237512    -2.8183861437    -5.2409585699
 H     -4.0343704475    -2.7034406335    -5.5984872885
 F     -3.9735613396    -2.8049124003    -4.6891497643
 H     -2.3624880534    -2.6257163473    -6.7402630925
 F     -3.1845135525    -2.5558968005    -7.1406233173
          6
Energy: -17.580189331137547 Kcal/mole
 H     -2.2116100319    -2.8538909885    -4.7336839470
 F     -1.4485068465    -2.8182920979    -5.2409267364
 H     -4.0341962125    -2.7023950081    -5.5983816028
 F     -3.9735705824    -2.8049678684    -4.6891553706
 H     -2.3627144493    -2.6247242926    -6.7396271404
 F     -3.1845015427    -2.5559494267    -7.1406570531
          6
Energy: -17.580017057323403 Kcal/mole
 H     -2.2115875507    -2.8529232160    -4.7335831898
 F     -1.4485080391    -2.8183434359    -5.2409320814
 H     -4.0368861291    -2.7008165621    -5.5980184648
 F     -3.9734278885    -2.8050516013    -4.6891746343
 H     -2.3634150334    -2.6235003188    -6.7379877432
 F     -3.1844643784    -2.5560143557    -7.1407440193
          6
Energy: -17.580075344974375 Kcal/mole
 H     -2.2116460548    -2.8549524459    -4.7338138230
 F     -1.4485049356    -2.8182357900    -5.2409198468
 H     -4.0353027221    -2.7023535484    -5.5983024318
 F     -3.9735118846    -2.8049700677    -4.6891595705
 H     -2.3622972827    -2.6221806776    -6.7400547390
 F     -3.1845236725    -2.5560843596    -7.1406343700
          6
Energy: -17.580150009093757 Kcal/mole
 H     -2.2111083338    -2.8536721805    -4.7329147542
 F     -1.4485334604    -2.8183037051    -5.2409675403
 H     -4.0329612001    -2.7024511947    -5.5984694004
 F     -3.9736360969    -2.8049648878    -4.6891507132
 H     -2.3628471530    -2.6248849052    -6.7393828849
 F     -3.1844945031    -2.5559409066    -7.1406700103
          6
Energy: -17.579479383520663 Kcal/mole
 H     -2.2116721898    -2.8494014892    -4.7334833474
 F     -1.4485035492    -2.8185302554    -5.2409373778
 H     -4.0398165185    -2.7021907460    -5.5979653904
 F     -3.9732724381    -2.8049787040    -4.6891774497
 H     -2.3625580505    -2.6260176340    -6.7401720519
 F     -3.1845098393    -2.5558808179    -7.1406281468
          6
Energy: -17.579858161278707 Kcal/mole
 H     -2.2115565995    -2.8534504095    -4.7335728594
 F     -1.4485096810    -2.8183154695    -5.2409326294
 H     -4.0361534398    -2.6996739291    -5.5979375040
 F     -3.9734667560    -2.8051122153    -4.6891789290
 H     -2.3634684838    -2.6287594543    -6.7387970208
 F     -3.1844615429    -2.5557353707    -7.1407010890
          6
Energy: -17.580063677935073 Kcal/mole
 H     -2.2114120038    -2.8528261528    -4.7333126601
 F     -1.4485173514    -2.8183485849    -5.2409464323
 H     -4.0345064155    -2.7053292428    -5.5986868444
 F     -3.9735541268    -2.8048122140    -4.6891391783
 H     -2.3628763120    -2.6233252760    -6.7390585560
 F     -3.1844929563    -2.5560236413    -7.1406872152
          6
Energy: -17.57993764060012 Kcal/mole
 H     -2.2114034937    -2.8542648578    -4.7333997398
 F     -1.4485178029    -2.8182722649    -5.2409418130
 H     -4.0309260607    -2.7009415586    -5.5984282650
 F     -3.9737440564    -2.8050449705    -4.6891528953
 H     -2.3621431681    -2.6249735499    -6.7408430025
 F     -3.1845318479    -2.5559362042    -7.1405925544
          6
Energy: -17.579919596105128 Kcal/mole
 H     -2.2115310775    -2.8531478328    -4.7335136212
 F     -1.4485110349    -2.8183315205    -5.2409357718
 H     -4.0322792998    -2.7019110534    -5.5984525562
 F     -3.9736722702    -2.8049935410    -4.6891516067
 H     -2.3632740059    -2.6237294053    -6.7383138580
 F     -3.1844718595    -2.5560022032    -7.1407267197
          6
Energy: -17.57981241667028 Kcal/mole
 H     -2.2133877585    -2.8521982630    -4.7362526904
 F     -1.4484125422    -2.8183818930    -5.2407904705
 H     -4.0364149915    -2.7052239566    -5.5985453009
 F     -3.9734528813    -2.8048177992    -4.6891466868
 H     -2.3621045648    -2.6244459188    -6.7408316657
 F     -3.1845338957    -2.5559641938    -7.1405931558
          6
Energy: -17.580070923568826 Kcal/mole
 H     -2.2126301995    -2.8510640502    -4.7350315645
 F     -1.4484527290    -2.8184420604    -5.2408552484
 H     -4.0342438241    -2.7040638939    -5.5985650671
 F     -3.9735680567    -2.8048793378    -4.6891456383
 H     -2.3617371461    -2.6244232791    -6.7415846030
 F     -3.1845533864    -2.5559653948    -7.1405532142
          6
Energy: -17.579996409477985 Kcal/mole
 H     -2.2107980450    -2.8524100258    -4.7323632185
 F     -1.4485499205    -2.8183706595    -5.2409967980
 H     -4.0346786218    -2.7009452174    -5.5981845064
 F     -3.9735449917    -2.8050447764    -4.6891658261
 H     -2.3632951548    -2.6221389927    -6.7380064626
 F     -3.1844707376    -2.5560865709    -7.1407430263
          6
Energy: -17.579793236351975 Kcal/mole
 H     -2.2125397108    -2.8538955577    -4.7350858268
 F     -1.4484575292    -2.8182918555    -5.2408523699
 H     -4.0339403851    -2.7003387766    -5.5981641769
 F     -3.9735841534    -2.8050769467    -4.6891669046
 H     -2.3620002802    -2.6205370280    -6.7403969798
 F     -3.1845394278    -2.5561715514    -7.1406162149
          6
Energy: -17.57986563903131 Kcal/mole
 H     -2.2116415028    -2.8498708051    -4.7334659776
 F     -1.4485051771    -2.8185053593    -5.2409382992
 H     -4.0308752290    -2.7015859435    -5.5985049923
 F     -3.9737467529    -2.8050107874    -4.6891488251
 H     -2.3616115446    -2.6246789044    -6.7418877286
 F     -3.1845600493    -2.5559518344    -7.1405371341
          6
Energy: -17.580063025014454 Kcal/mole
 H     -2.2120297045    -2.8520342134    -4.7341890240
 F     -1.4484845838    -2.8183905955    -5.2408999433
 H     -4.0330715540    -2.6997931052    -5.5981583820
 F     -3.9736302429    -2.8051058933    -4.6891672120
 H     -2.3615738788    -2.6248573624    -6.7419963093
 F     -3.1845620474    -2.5559423677    -7.1405313742
          6
Energy: -17.580165702923807 Kcal/mole
 H     -2.2111217629    -2.8519527149    -4.7328182830
 F     -1.4485327481    -2.8183949188    -5.2409726579
 H     -4.0329642394    -2.7032669533    -5.5985607779
 F     -3.9736359357    -2.8049216137    -4.6891458658
 H     -2.3627913033    -2.6253917749    -6.7395847171
 F     -3.1844974658    -2.5559140183    -7.1406593035
          6
Energy: -17.580159585135675 Kcal/mole
 H     -2.2117440508    -2.8508558661    -4.7336821393
 F     -1.4484997371    -2.8184531041    -5.2409268323
 H     -4.0359806682    -2.7022525562    -5.5982446813
 F     -3.9734759211    -2.8049754251    -4.6891626340
 H     -2.3629941664    -2.6246677988    -6.7390448101
 F     -3.1844867044    -2.5559524236    -7.1406879444
          6
Energy: -17.580127874830282 Kcal/mole
 H     -2.2099422367    -2.8493578107    -4.7335803292
 F     -1.4472091204    -2.8148312200    -5.2414534510
 H     -4.0341432373    -2.7034009254    -5.5984980206
 F     -3.9735733926    -2.8049145068    -4.6891491949
 H     -2.3611695522    -2.6222087445    -6.7423829377
 F     -3.1845834960    -2.5560828707    -7.1405108644
          6
Energy: -17.580231585096215 Kcal/mole
 H     -2.2095801099    -2.8488246830    -4.7330010157
 F     -1.4472283304    -2.8148595011    -5.2414841822
 H     -4.0337352439    -2.7028499125    -5.5984634119
 F     -3.9735950357    -2.8049437367    -4.6891510308
 H     -2.3618980126    -2.6224317334    -6.7409169716
 F     -3.1845448528    -2.5560710417    -7.1405886305
          6
Energy: -17.58013045485683 Kcal/mole
 H     -2.2098143929    -2.8505348948    -4.7334698184
 F     -1.4472159022    -2.8147687784    -5.2414593133
 H     -4.0341406310    -2.7011327126    -5.5982419693
 F     -3.9735735309    -2.8050348302    -4.6891627779
 H     -2.3623868661    -2.6212333569    -6.7397158924
 F     -3.1845189203    -2.5561346128    -7.1406523450
          6
Energy: -17.58013620240058 Kcal/mole
 H     -2.2104341732    -2.8484850627    -4.7342613180
 F     -1.4471830243    -2.8148775172    -5.2414173261
 H     -4.0356427484    -2.7027249664    -5.5983210971
 F     -3.9734938470    -2.8049503648    -4.6891585803
 H     -2.3625938330    -2.6253075061    -6.7399749493
 F     -3.1845079411    -2.5559184886    -7.1406386026
          6
Energy: -17.579857905842346 Kcal/mole
 H     -2.2093955848    -2.8526373361    -4.7329941247
 F     -1.4472381190    -2.8146572487    -5.2414845478
 H     -4.0314669691    -2.7071541772    -5.6030185962
 F     -3.9756097646    -2.8072393925    -4.6932098677
 H     -2.3610314553    -2.6211009387    -6.7424862163
 F     -3.1845908217    -2.5561416373    -7.1405053857
          6
Energy: -17.5800793493691 Kcal/mole
 H     -2.2090260426    -2.8521079183    -4.7324014837
 F     -1.4472577224    -2.8146853331    -5.2415159860
 H     -4.0346960852    -2.7044510873    -5.6025125768
 F     -3.9754384674    -2.8073827852    -4.6932367109
 H     -2.3635643108    -2.6224045929    -6.7375017372
 F     -3.1844564595    -2.5560724814    -7.1407698008
          6
Energy: -17.58016285822697 Kcal/mole
 H     -2.2109536012    -2.8493808851    -4.7351042521
 F     -1.4471554699    -2.8148299959    -5.2413726104
 H     -4.0342437647    -2.7094806369    -5.6030964449
 F     -3.9754624620    -2.8071159792    -4.6932057381
 H     -2.3594953805    -2.6308490945    -6.7428993029
 F     -3.1817289879    -2.5678795986    -7.1439675484
          6
Energy: -17.579912746069283 Kcal/mole
 H     -2.2099764947    -2.8518956479    -4.7338110411
 F     -1.4472073031    -2.8146965936    -5.2414412123
 H     -4.0351423422    -2.7048002987    -5.6025228396
 F     -3.9754147945    -2.8073642603    -4.6932361665
 H     -2.3599819219    -2.6320186047    -6.7420884280
 F     -3.1817031780    -2.5678175588    -7.1440105635
          6
Energy: -17.580139059337398 Kcal/mole
 H     -2.2112253752    -2.8476896720    -4.7354019976
 F     -1.4471410529    -2.8149197109    -5.2413568157
 H     -4.0351285623    -2.7088979463    -5.6029761015
 F     -3.9754155255    -2.8071468896    -4.6932121220
 H     -2.3598179977    -2.6315773332    -6.7423534633
 F     -3.1817118738    -2.5678409672    -7.1439965039
          6
Energy: -17.580076567763456 Kcal/mole
 H     -2.2097433227    -2.8482036545    -4.7332047021
 F     -1.4472196723    -2.8148924453    -5.2414733771
 H     -4.0361743419    -2.7108118201    -5.6031113842
 F     -3.9753600493    -2.8070453630    -4.6932049456
 H     -2.3609784979    -2.6299894318    -6.7397407350
 F     -3.1816503119    -2.5679252017    -7.1441351031
          6
Energy: -17.58020071372397 Kcal/mole
 H     -2.2105053444    -2.8479542762    -4.7343335577
 F     -1.4471792488    -2.8149056742    -5.2414134940
 H     -4.0342633290    -2.7098084502    -5.6031302937
 F     -3.9754614241    -2.8070985895    -4.6932039424
 H     -2.3596319676    -2.6309907479    -6.7426416628
 F     -3.1817217423    -2.5678720842    -7.1439812156
          6
Energy: -17.579934906752385 Kcal/mole
 H     -2.2099201239    -2.8468106431    -4.7333807246
 F     -1.4472102934    -2.8149663413    -5.2414640396
 H     -4.0318566370    -2.7091314423    -5.6032098139
 F     -3.9755890936    -2.8071345032    -4.6931997241
 H     -2.3587934033    -2.6329195341    -6.7446739098
 F     -3.1817662262    -2.5677697666    -7.1438734096
          6
Energy: -17.580224958427834 Kcal/mole
 H     -2.2096934037    -2.8487572064    -4.7331664124
 F     -1.4472223204    -2.8148630806    -5.2414754083
 H     -4.0341777930    -2.7076340145    -5.6029005580
 F     -3.9754659616    -2.8072139382    -4.6932161294
 H     -2.3602445586    -2.6319469493    -6.7415405174
 F     -3.1816892457    -2.5678213599    -7.1440396288
          6
Energy: -17.580042920417725 Kcal/mole
 H     -2.2095307823    -2.8457624638    -4.7327323003
 F     -1.4472309471    -2.8150219448    -5.2414984370
 H     -4.0343572528    -2.7132537333    -5.6034856502
 F     -3.9754564417    -2.8069158251    -4.6931850916
 H     -2.3626907969    -2.6342250642    -6.7401083264
 F     -3.1844870417    -2.5704628179    -7.1419469855
          6
Energy: -17.57987639485475 Kcal/mole
 H     -2.2074972614    -2.8480955091    -4.7298449211
 F     -1.4473388207    -2.8148981821    -5.2416516058
 H     -4.0334998513    -2.7089606319    -5.6030882280
 F     -3.9755019248    -2.8071435643    -4.6932061739
 H     -2.3623145701    -2.6332664854    -6.7407275324
 F     -3.1845069997    -2.5705136683    -7.1419141381
          6
Energy: -17.580144682435048 Kcal/mole
 H     -2.2093374965    -2.8475088641    -4.7325514438
 F     -1.4472412005    -2.8149293023    -5.2415080310
 H     -4.0328804064    -2.7088487479    -5.6031154100
 F     -3.9755347850    -2.8071494994    -4.6932047320
 H     -2.3620736451    -2.6325376941    -6.7411082516
 F     -3.1845197802    -2.5705523290    -7.1418939418
          6
Energy: -17.57993858978307 Kcal/mole
 H     -2.2098490561    -2.8489024572    -4.7334096869
 F     -1.4472140634    -2.8148553754    -5.2414625032
 H     -4.0328455573    -2.7061853683    -5.6028257183
 F     -3.9755366336    -2.8072907856    -4.6932200995
 H     -2.3616852900    -2.6327556074    -6.7419400612
 F     -3.1845403815    -2.5705407692    -7.1418498162
          6
Energy: -17.58006459714278 Kcal/mole
 H     -2.2083044073    -2.8499816005    -4.7311722105
 F     -1.4472960035    -2.8147981293    -5.2415811961
 H     -4.0322449841    -2.7105903763    -5.6033415920
 F     -3.9755684927    -2.8070571101    -4.6931927336
 H     -2.3632265104    -2.6326969854    -6.7387760356
 F     -3.1844586234    -2.5705438789    -7.1420176605
          6
Energy: -17.58013577375266 Kcal/mole
 H     -2.2103737329    -2.8499516066    -4.7342697772
 F     -1.4471862305    -2.8147997205    -5.2414168774
 H     -4.0341618879    -2.7106619405    -5.6032276721
 F     -3.9754668053    -2.8070533138    -4.6931987767
 H     -2.3618103117    -2.6341906846    -6.7419088078
 F     -3.1845337494    -2.5704646417    -7.1418514741
          6
Energy: -17.580098939591608 Kcal/mole
 H     -2.2106282473    -2.8462405916    -4.7344099507
 F     -1.4471727291    -2.8149965812    -5.2414094415
 H     -4.0349301506    -2.7113832574    -5.6032538805
 F     -3.9754260508    -2.8070150496    -4.6931973865
 H     -2.3622597860    -2.6341493993    -6.7409790205
 F     -3.1845099059    -2.5704668317    -7.1419007972
          6
Energy: -17.580220472420763 Kcal/mole
 H     -2.2092952477    -2.8495151112    -4.7326207772
 F     -1.4472434417    -2.8148228755    -5.2415043530
 H     -4.0342369018    -2.7105645987    -5.6032125145
 F     -3.9754628260    -2.8070584775    -4.6931995808
 H     -2.3628073929    -2.6330238976    -6.7396814276
 F     -3.1844808566    -2.5705265370    -7.1419696315
          6
Energy: -17.580165823957714 Kcal/mole
 H     -2.2101699433    -2.8499612239    -4.7339639086
 F     -1.4471970411    -2.8147992103    -5.2414331030
 H     -4.0328789998    -2.7083889888    -5.6030657056
 F     -3.9755348596    -2.8071738886    -4.6932073687
 H     -2.3618701810    -2.6338508852    -6.7417317054
 F     -3.1845305735    -2.5704826672    -7.1418608690
          6
Energy: -17.579973188817462 Kcal/mole
 H     -2.2100592572    -2.8471890006    -4.7336135229
 F     -1.4472029127    -2.8149462703    -5.2414516901
 H     -4.0350288006    -2.7095396034    -5.6030516971
 F     -3.9754208176    -2.8071128512    -4.6932081118
 H     -2.3623041542    -2.6308090406    -6.7403725812
 F     -3.1845075522    -2.5706440301    -7.1419329674
          6
Energy: -17.580198603180122 Kcal/mole
 H     -2.2100668067    -2.8492053321    -4.7337571173
 F     -1.4472025123    -2.8148393086    -5.2414440728
 H     -4.0327309336    -2.7098815812    -5.6032357722
 F     -3.9755427142    -2.8070947100    -4.6931983471
 H     -2.3619605263    -2.6347484525    -6.7416891771
 F     -3.1845257809    -2.5704350534    -7.1418631250
          6
Energy: -17.58019140111122 Kcal/mole
 H     -2.2103075273    -2.8490518696    -4.7341086554
 F     -1.4471897426    -2.8148474494    -5.2414254245
 H     -4.0347145885    -2.7094826353    -5.6030661141
 F     -3.9754374858    -2.8071158732    -4.6932073470
 H     -2.3620135940    -2.6331837227    -6.7413320150
 F     -3.1845229658    -2.5705180587    -7.1418820717
          6
Energy: -17.58014489469167 Kcal/mole
 H     -2.2105314094    -2.8493454686    -4.7344654928
 F     -1.4471778662    -2.8148318747    -5.2414064951
 H     -4.0346677687    -2.7095915523    -5.6030808436
 F     -3.9754399695    -2.8071100954    -4.6932065657
 H     -2.3617031525    -2.6333086939    -6.7419897585
 F     -3.1845394340    -2.5705114292    -7.1418471799
          6
Energy: -17.580053441327834 Kcal/mole
 H     -2.2098907007    -2.8518987116    -4.7336823757
 F     -1.4472118543    -2.8146964310    -5.2414480377
 H     -4.0328669235    -2.7083341752    -5.6030605136
 F     -3.9755355002    -2.8071767963    -4.6932076441
 H     -2.3625704681    -2.6330102190    -6.7401635994
 F     -3.1844934249    -2.5705272626    -7.1419440534
          6
Energy: -17.580111366502365 Kcal/mole
 H     -2.2096386335    -2.8480146125    -4.7330353321
 F     -1.4472252259    -2.8149024735    -5.2414823618
 H     -4.0337001721    -2.7121294354    -5.6034115019
 F     -3.9754912983    -2.8069754665    -4.6931890250
 H     -2.3630523750    -2.6322112350    -6.7390562553
 F     -3.1844678608    -2.5705696469    -7.1420027954
          6
Energy: -17.580126546001964 Kcal/mole
 H     -2.2084723239    -2.8481625216    -4.7313006374
 F     -1.4472870959    -2.8148946273    -5.2415743834
 H     -4.0338037225    -2.7088260624    -5.6030542730
 F     -3.9754858052    -2.8071507029    -4.6932079752
 H     -2.3628363765    -2.6358004918    -6.7400638685
 F     -3.1844793191    -2.5703792451    -7.1419493439
          6
Energy: -17.58020910704778 Kcal/mole
 H     -2.2098385002    -2.8482336261    -4.7333494874
 F     -1.4472146234    -2.8148908553    -5.2414656966
 H     -4.0332604441    -2.7112104548    -5.6033432608
 F     -3.9755146248    -2.8070242163    -4.6931926450
 H     -2.3619280332    -2.6345612677    -6.7417259333
 F     -3.1845275046    -2.5704449831    -7.1418611752
          6
Energy: -17.58014239058906 Kcal/mole
 H     -2.2097680588    -2.8499134328    -4.7333569216
 F     -1.4472183601    -2.8148017455    -5.2414653023
 H     -4.0353315552    -2.7095748078    -5.6030355837
 F     -3.9754047572    -2.8071109836    -4.6932089666
 H     -2.3623861558    -2.6347302587    -6.7408126132
 F     -3.1845032022    -2.5704360185    -7.1419096247
          6
Energy: -17.580159244886772 Kcal/mole
 H     -2.2098041564    -2.8481102031    -4.7332898629
 F     -1.4472164452    -2.8148974027    -5.2414688596
 H     -4.0342329666    -2.7079948123    -5.6029364144
 F     -3.9754630348    -2.8071947988    -4.6932142273
 H     -2.3620245216    -2.6347985771    -6.7415657179
 F     -3.1845223861    -2.5704323944    -7.1418696743
          6
Energy: -17.580211130066118 Kcal/mole
 H     -2.2092049637    -2.8483429255    -4.7324071427
 F     -1.4472482310    -2.8148850573    -5.2415156858
 H     -4.0341295818    -2.7107246309    -5.6032363931
 F     -3.9754685191    -2.8070499882    -4.6931983141
 H     -2.3630572359    -2.6345566949    -6.7394125021
 F     -3.1844676030    -2.5704452257    -7.1419838974
          6
Energy: -17.580175025431572 Kcal/mole
 H     -2.2091273060    -2.8485316837    -4.7323033757
 F     -1.4472523506    -2.8148750441    -5.2415211904
 H     -4.0340259853    -2.7095658546    -5.6031196263
 F     -3.9754740147    -2.8071114586    -4.6932045083
 H     -2.3618928441    -2.6341282641    -6.7417291407
 F     -3.1845293713    -2.5704679529    -7.1418610050
          6
Energy: -17.580233288247655 Kcal/mole
 H     -2.2092217104    -2.8491517977    -4.7324860480
 F     -1.4472473427    -2.8148421485    -5.2415115001
 H     -4.0338664271    -2.7103122986    -5.6032095729
 F     -3.9754824788    -2.8070718615    -4.6931997369
 H     -2.3623942137    -2.6345430012    -6.7407661295
 F     -3.1845027748    -2.5704459521    -7.1419120906