          6
Energy: -12.417509933581343 Kcal/mole
 H     -1.7946435900    -1.9375804163    -2.7035689696
 F     -2.2025770834    -2.5687605246    -3.2290125307
 H      0.4516873856     1.2959504636     0.4464948433
 F     -0.3424394502     0.9924327297     0.1027964963
 H     -0.6694845412    -0.1183410877    -1.2826574741
 F     -0.7893206058    -0.8570309749    -1.8126249902
          6
Energy: -10.479051150057728 Kcal/mole
 H     -4.0646848387     1.5083098137    -5.6195815907
 F     -3.8664416002     1.6597019309    -4.7371593305
 H     -4.8552138210     0.0724159484    -1.5886402904
 F     -4.1729170224     0.2786720138    -1.0117360400
 H     -4.5272129614     0.2001331166    -3.5707703821
 F     -5.1988942122    -0.3457933107    -3.2679542113
          6
Energy: -16.12844490114287 Kcal/mole
 H     -3.5059742946     0.4998909921    -4.1516264563
 F     -3.0030264148     0.5652683017    -4.9156017423
 H     -2.2256686392    -0.2253178947    -2.4608295856
 F     -3.0957097220     0.0284942402    -2.3211982338
 H     -1.5917316101    -0.3406487481    -4.2650596355
 F     -0.9493509377    -0.4798564768    -3.6256401488
          6
Energy: -14.625525637474652 Kcal/mole
 H     -3.1914462506     5.8572751096     3.7772707401
 F     -3.0714156056     4.9681600540     3.9668915778
 H     -3.5632169284     5.1573541869     5.9511321946
 F     -3.7965507472     5.8152498794     6.5457897320
 H     -4.4117301617     6.9667224000     5.2731189781
 F     -4.1174266518     7.4487608967     4.5506832843
          6
Energy: -13.039824560263895 Kcal/mole
 H     -4.4715311039     4.7759429616    -6.0836554488
 F     -4.3790401932     5.0181081022    -6.9632522178
 H     -5.8202959916     6.0668097418    -6.8156318175
 F     -6.7169611024     6.1345654267    -6.6359380606
 H     -6.2336684191     4.8734616193    -4.3252379736
 F     -5.3780511100     4.5444218931    -4.3019811692
          6
Energy: -13.084603380338166 Kcal/mole
 H     -0.9368350286    -0.6741051753     5.6182826710
 F     -0.8812311996    -0.6574192652     6.5334432005
 H     -1.1939585378     2.2022703098     6.2636702242
 F     -1.6525231738     1.9897062766     5.4985401658
 H     -1.5428290581     0.6690393708     4.2433652634
 F     -1.1536872820    -0.0800400259     3.8851226981
          6
Energy: -14.045291549341584 Kcal/mole
 H      5.9584842318    -1.6767604569     3.3350676918
 F      5.1570804306    -1.5328929892     2.9132346688
 H      4.7568841862    -2.2537068091     1.4981917226
 F      5.0170015636    -2.6956918251     0.7380093789
 H      6.3356141159    -3.2671173914     1.5635339052
 F      6.8729271050    -3.5639219718     2.2447760008
          6
Energy: -15.420618717395683 Kcal/mole
 H      6.5915365664     3.6448610816    -5.3449644894
 F      6.3820764886     4.5199942489    -5.5214791215
 H      5.3895598074     4.3466248542    -3.8666109815
 F      5.2077502730     3.8333466410    -3.1287900215
 H      6.2297833936     2.4398582696    -3.6200251660
 F      6.5927725555     1.9759857506    -4.3228410412
          6
Energy: -12.797258937229941 Kcal/mole
 H      1.8278247451     0.2315183830    -4.6308053537
 F      1.9439555353     0.0382807571    -3.7419511139
 H      3.2011276544     0.3597783291    -5.9374324303
 F      2.3366615705     0.2721394478    -6.2305310763
 H      4.1315040217     0.7979146800    -3.7913797159
 F      4.7807266813     0.8667670370    -4.4353193801
          6
Energy: -16.11909467803065 Kcal/mole
 H      7.2705170044    -1.6059476879    -3.7226479412
 F      6.9262548188    -2.4448692463    -3.8589680297
 H      6.2400913569     0.1281799512    -2.7635397035
 F      6.9908991893     0.1472791509    -3.2896687935
 H      5.5658626470    -1.9418183791    -2.6468566250
 F      5.1825267807    -1.3577808028    -2.0528509659
          6
Energy: -14.2991789184168 Kcal/mole
 H     -0.9185933745    -1.9289488546     4.3284809768
 F     -0.2563312912    -1.4809447674     4.7774690289
 H     -3.0706490318    -2.4147323083     5.0064859044
 F     -2.5323869758    -2.6488049338     4.3019484923
 H     -1.4546080651    -0.6902379899     6.2157961305
 F     -2.1884319107    -1.0260892830     6.6512217529
          6
Energy: -14.640200739738418 Kcal/mole
 H     -1.3921950106     1.4780646207     5.5000637512
 F     -0.5847933123     1.0510758267     5.4183810272
 H     -2.2712046943     0.5068188980     2.9030309468
 F     -2.8078704461     1.1881084547     3.2008956994
 H     -0.4360190224     0.0090284930     3.9257636016
 F     -0.8026167599    -0.4356588881     3.2124977101
          6
Energy: -15.888527008032668 Kcal/mole
 H     -6.8552215623    -2.2853348020     6.1596326696
 F     -7.3204148833    -1.5257796459     5.9415497977
 H     -6.0236433839    -3.8551563812     5.0791077264
 F     -6.0189340946    -3.8218156115     5.9954893148
 H     -7.3370791401    -1.9318034941     4.1404891464
 F     -6.9635994483    -2.6297115458     3.6775352920
          6
Energy: -13.348002508458592 Kcal/mole
 H     -6.3299889002    -4.4031432740     2.9078564415
 F     -6.3299075973    -5.2438119547     2.5415708118
 H     -4.2998739749    -2.8047116091     3.3676525449
 F     -5.2028162542    -2.9394454847     3.4538559263
 H     -4.4778570929    -5.4197762891     2.0004644791
 F     -3.7093830153    -4.9238284659     1.9343407409
          6
Energy: -14.377941729209283 Kcal/mole
 H     -3.3758708491    -7.1810917926    -4.8341805040
 F     -3.9682054136    -7.1894986610    -4.1342104415
 H     -3.3534279227    -5.6318245022    -6.3457812546
 F     -2.7855325486    -6.3487803778    -6.4117972868
 H     -4.0810439931    -5.1595069212    -4.1667747574
 F     -3.7542640525    -4.4739887017    -4.6807481431
          6
Energy: -11.758556553228544 Kcal/mole
 H     -4.1524705122    -0.7967879871    -1.9173860291
 F     -3.7904656340    -1.6239649706    -1.7573244593
 H     -4.0851985610     1.2710301448    -0.8488519561
 F     -4.0754953003     0.9373319918    -1.7029247805
 H     -2.7011658700     1.9306862641     0.4900907415
 F     -3.5658976628     1.7063602509     0.6969862861
          6
Energy: -13.802862278910396 Kcal/mole
 H     -5.9583374256    -4.5716736926     3.7666241059
 F     -5.8810781900    -5.4263521618     4.0898031967
 H     -5.3446743960    -2.2299608316     3.5226571657
 F     -5.8513981117    -2.9619365113     3.3028124929
 H     -5.5387139197    -5.2037798827     5.7469017118
 F     -5.3790879311    -4.9172980219     6.6032525086
          6
Energy: -16.067844023550748 Kcal/mole
 H     -5.4264122609    -2.1750483737     2.9957116271
 F     -4.9624528996    -1.7989449957     3.6915398819
 H     -7.2709037001    -2.4687373955     2.9008622571
 F     -6.7436472823    -2.6807624621     2.1811852177
 H     -6.5705205028    -1.9596777586     4.9908841730
 F     -7.4323060296    -2.2032167046     4.7936445026
          6
Energy: -16.956651020679033 Kcal/mole
 H     -4.9291145052    -7.0355163920     3.6534508044
 F     -4.7286583786    -6.5105831048     2.9287775088
 H     -3.9603432355    -6.7055388220     5.3394013436
 F     -4.6742171596    -7.2809507482     5.3525973955
 H     -3.4104641720    -5.7850722263     3.6669361626
 F     -2.8214034442    -5.6335003249     4.3531740351
          6
Energy: -13.932283399832613 Kcal/mole
 H     -2.6318639303    -0.1062524559     2.1710115243
 F     -2.8404561041     0.0061457653     1.2851532146
 H     -3.9272323820    -0.6879959542     3.7739475994
 F     -3.2556215039    -0.0657630721     3.8254652553
 H     -4.3310739403    -1.0343494561     1.5731745612
 F     -4.8383597845    -1.6997081660     1.9484715896
          6
Energy: -16.234202626341016 Kcal/mole
 H     -3.4059444927    -0.9613377861    -3.0850614513
 F     -3.3657296995    -1.7541654705    -2.6260450755
 H     -3.9786410276     0.7989251087    -2.4471750895
 F     -3.7208520499     0.7553500613    -3.3261148247
 H     -3.8128713810    -0.7815305771    -0.8025069954
 F     -3.9806961474     0.1155553236    -0.7132840470
          6
Energy: -15.687423116300579 Kcal/mole
 H     -1.6127409621     5.3453514864    -3.3408178976
 F     -1.0183221240     5.6655397223    -2.7203062228
 H     -1.4623738576     3.4136468043    -4.2635381739
 F     -2.1945315736     3.9374084284    -4.4382031099
 H      0.2107628929     4.5378984190    -3.1030374170
 F      0.4927191820     3.8840185957    -3.6808183684
          6
Energy: -15.96939793463946 Kcal/mole
 H     -5.3099248568     4.1036446000    -0.1581419876
 F     -5.6980938994     3.3064325814    -0.3919512937
 H     -3.7899274380     3.8155855756     1.2254630660
 F     -3.8406478631     4.6750717735     0.9098685255
 H     -4.7391500260     1.9257737604     0.6497953155
 F     -4.1441110610     1.9455853576     1.3472371631
          6
Energy: -16.009725458588434 Kcal/mole
 H     -4.1879826956    -0.2591998733    -0.9883100122
 F     -4.2999742522    -0.4347503504    -0.0952652646
 H     -5.6162686300     0.8867967427    -1.8416315802
 F     -5.0302181189     0.5853158242    -2.4792388686
 H     -5.8137473956     0.7144586284     0.1869372492
 F     -6.2569392453     1.2280808328    -0.4300410450
          6
Energy: -16.19867788182964 Kcal/mole
 H     -3.1431343558     2.8700346011    -1.1765712627
 F     -3.2838637594     3.3020807072    -0.3800661483
 H     -1.8529814245     0.9577554727    -0.8868077514
 F     -2.0747777850     1.1756651495    -1.7494842535
 H     -2.6429169349     2.1134556756     0.8212954580
 F     -2.0896391391     1.4042237772     0.9995166546
          6
Energy: -15.279395131185368 Kcal/mole
 H      0.2440484542     1.9003415778     4.7586910826
 F      1.1206276944     1.6439977105     4.6763159808
 H     -0.9552270148     0.5470349466     3.7839470922
 F     -1.3952465428     1.1446182241     4.3226177164
 H      0.8035916607    -0.0747088774     4.0843726047
 F      0.2247506168    -0.5021340718     3.5159187815
          6
Energy: -16.04413613194592 Kcal/mole
 H     -2.3867919472     4.6678884009     2.8364454166
 F     -2.2242198943     5.2138368435     3.5550549251
 H     -1.4186605086     3.3058665327     1.9447612334
 F     -2.2386484043     3.5042759615     1.5853971431
 H     -0.2804086871     4.4189722152     3.5563241792
 F      0.0163244104     3.6841672556     3.0949131474
          6
Energy: -16.7294116251677 Kcal/mole
 H     -0.2171132540     1.9515232756    -2.0940811524
 F     -0.0021625161     2.5157401433    -2.7842583083
 H     -1.2367989245     2.3741575805    -0.6856934230
 F     -0.8518882102     1.5437463167    -0.6295696765
 H     -1.0588199019     3.8258220459    -2.0207247028
 F     -1.6382652127     3.9158914458    -1.3157285078
          6
Energy: -16.943256625586287 Kcal/mole
 H     -3.7575403260     1.6110429885    -4.1107967473
 F     -4.4645236313     1.0327948804    -4.1926058633
 H     -1.7950153707     0.6455621024    -4.3212362714
 F     -1.9007398785     1.5562434170    -4.3404942980
 H     -3.5108348109    -0.5080695708    -4.4393719324
 F     -2.7043982783    -0.9429529153    -4.4016148705
          6
Energy: -15.749600685500127 Kcal/mole
 H     -2.1087752976     0.3990730008    -4.4921168077
 F     -1.5008243542     1.0065108728    -4.1722670271
 H     -1.9863853264    -0.3251434926    -6.4887643073
 F     -2.4496506892    -0.8388797012    -5.8868097313
 H     -0.5504693814     1.1799328917    -5.5890203498
 F     -0.3928910396     1.0753807867    -6.4863090010
          6
Energy: -15.601955854097326 Kcal/mole
 H     -1.8823664809    -4.4757958141    -1.5267204791
 F     -1.6719087927    -5.1762346331    -0.9735640615
 H     -0.8573107858    -3.5528185336    -2.7520446853
 F     -1.7673719976    -3.5753051370    -2.8623712160
 H      0.1494569775    -5.1024052188    -1.5577595719
 F      0.6509776364    -4.4937556859    -2.0256396578
          6
Energy: -15.652055311543592 Kcal/mole
 H     -2.7690489920    -1.1410610174    -3.2579513041
 F     -2.5442834053    -1.7403137758    -2.6012431783
 H     -3.2275390527     0.7095031406    -2.1703418557
 F     -3.2199426397     0.8742592779    -3.0723877025
 H     -2.2142746796    -0.7052121795    -1.1419501507
 F     -2.4703253955     0.0659121125    -0.7168685620
          6
Energy: -17.420365511083162 Kcal/mole
 H     -0.7632703951     1.6255706903    -2.9125902944
 F     -1.4123787196     2.1861998425    -3.2370010476
 H     -1.0725912809    -0.1647255722    -2.2355611094
 F     -0.2287943387     0.1940864301    -2.2233272467
 H     -2.6738380217     0.9500846006    -2.9302235987
 F     -2.8317852003     0.1038027807    -2.6143933121
          6
Energy: -15.927141029858376 Kcal/mole
 H     -3.0984098147     6.8232336941    -3.5364946403
 F     -2.2590370670     7.0440220240    -3.2405302780
 H     -4.8970626365     6.9725427029    -2.6463634385
 F     -4.8110639716     6.9812210799    -3.5592806940
 H     -3.0411380582     7.1179610174    -1.8004030392
 F     -3.7197768401     7.0264374951    -1.1905162886
          6
Energy: -16.154286935851673 Kcal/mole
 H     -5.8064471798     2.1059102009    -6.4810541472
 F     -5.2401696382     2.8224476030    -6.5634731819
 H     -6.4792328341     1.4252315709    -4.7563628649
 F     -6.8231020338     1.0136992873    -5.5001935937
 H     -5.2526407467     3.3020801465    -4.4223411622
 F     -5.6448361103     2.7121164035    -3.8400915776
          6
Energy: -16.033536493372168 Kcal/mole
 H     -0.4508234254     5.0806293513    -5.0586801971
 F     -0.8211622322     4.2922071547    -5.3452610899
 H     -0.8360998771     5.8199750308    -3.1193189322
 F     -0.3279354631     6.2766247887    -3.7309797263
 H     -1.7887593712     4.1707637900    -3.5902180545
 F     -1.9781530036     4.4448758773    -2.7358869620
          6
Energy: -16.28374952353994 Kcal/mole
 H      0.5472843525    -0.3041397963    -1.7497487414
 F      1.2482028613    -0.6534510526    -1.2726912080
 H      0.9326910907    -0.6816925191    -3.7631384629
 F      0.2531485291    -0.0700286292    -3.6925821533
 H      2.1806883289    -1.3273164649    -2.4950140133
 F      2.2405611894    -1.5377699143    -3.3855271161
          6
Energy: -16.441395508007872 Kcal/mole
 H     -4.3325232616     0.1033384418     0.0992853591
 F     -4.1182883596    -0.7180041977     0.4462560716
 H     -3.0451572694     1.6252150888    -0.5377062324
 F     -3.9582942389     1.6404645949    -0.6203943667
 H     -2.4285164894    -0.5197183080    -0.0021771515
 F     -1.7936425900     0.1292441737    -0.1312965893
          6
Energy: -16.91996576457234 Kcal/mole
 H     -4.7080713455    -0.3771856220    -0.6137359407
 F     -5.2435767277    -0.8005410736    -0.0014507561
 H     -5.2420363608    -0.3710288143    -2.6176399681
 F     -4.5661113137     0.1617692637    -2.3011900687
 H     -6.3834236028    -1.4986378467    -1.4494512105
 F     -6.4691483121    -1.4906894639    -2.3624008791
          6
Energy: -16.923264003193765 Kcal/mole
 H     -2.1435891857    -0.3564793038    -1.3976893726
 F     -2.3966189182    -0.4702137925    -0.5236588122
 H     -3.1287246800     0.5242371502    -2.9072908364
 F     -2.3381670200     0.0834884871    -3.0544241169
 H     -3.8266303235     0.3423961668    -0.9064234756
 F     -4.3723076237     0.6812602685    -1.5608670596
          6
Energy: -16.70294047617091 Kcal/mole
 H     -2.9237524464     2.0820046049    -0.7913980918
 F     -3.4572388242     2.7724623078    -1.0734432036
 H     -3.3973379615     0.0564118791    -1.5379109073
 F     -2.7321830896     0.2231091205    -0.9290841453
 H     -4.2350125235     1.8559594870    -2.1246551590
 F     -4.4885116351     1.1181902532    -2.6066549080
          6
Energy: -17.1000524982897 Kcal/mole
 H     -3.4259640325     3.2234186035    -4.4503416538
 F     -4.2298990104     2.9540031438    -4.1010668888
 H     -1.7712065887     2.0043242846    -4.2433193351
 F     -1.6557069085     2.8863439987    -4.4660075655
 H     -3.6201282048     1.3945713839    -3.8332563723
 F     -2.9384340175     0.7820637087    -3.8013756135
          6
Energy: -16.976688244162972 Kcal/mole
 H     -5.2502305977     2.5668298593    -5.0617733257
 F     -5.9341529410     2.2877562126    -5.6051490043
 H     -5.5292127407     2.0665091340    -3.0714579891
 F     -4.7038871737     2.4101213908    -3.2755592519
 H     -7.0921972646     1.7431128668    -4.3322035421
 F     -7.1102742512     1.6297578380    -3.4224162813
          6
Energy: -17.164074284529306 Kcal/mole
 H     -6.3922044630     4.3211446200    -5.2245532512
 F     -6.9597594116     4.3774494036    -4.5065002228
 H     -4.5923574370     5.0925287835    -5.3907583926
 F     -4.9596211874     4.6692408714    -6.1165914871
 H     -5.5889517752     5.0289838878    -3.6047221512
 F     -4.7209163752     5.3226268632    -3.6390346471
          6
Energy: -17.150495972735314 Kcal/mole
 H     -5.4795254009     0.7158193688    -5.3823504089
 F     -5.5274845302     1.1307460014    -4.5660019469
 H     -3.8131572080     1.2938886457    -6.6093250909
 F     -4.4629882824     0.7276967506    -6.9224310036
 H     -3.9734686079     1.8450558962    -4.5950228489
 F     -3.2216000123     2.0917533112    -5.0584049810
          6
Energy: -17.280013691090176 Kcal/mole
 H     -4.5645336059     1.0519800733    -6.3113657504
 F     -4.5049067764     0.2169467898    -5.9371291184
 H     -2.6853045379     2.0512036705    -6.6741904480
 F     -3.4491912240     2.5027173260    -6.9054944680
 H     -2.7237784882     0.2538730343    -5.8204442097
 F     -1.9337622535     0.7022078980    -5.9459798582
          6
Energy: -17.31072971994047 Kcal/mole
 H     -4.3280257585     0.5613752579    -5.0395491298
 F     -4.1444287919    -0.3311033876    -5.1428110356
 H     -3.4162651099     1.9458570055    -6.2307525443
 F     -3.9955595749     2.2929100403    -5.6103807898
 H     -3.0973065019     0.0212538490    -6.5248104766
 F     -2.6914389897     0.6511584414    -7.0533752948
          6
Energy: -17.477880905751306 Kcal/mole
 H     -4.3523854875     1.2880788364    -6.8939354036
 F     -4.3735586566     0.4647747664    -6.4906847305
 H     -2.6400530845     2.3747733912    -6.8456196454
 F     -3.3595197441     2.7453936717    -7.2767777756
 H     -2.7401115808     0.5761397210    -5.9237617686
 F     -1.9392352043     1.0227747017    -5.9255571709
          6
Energy: -17.52147010422459 Kcal/mole
 H     -4.1924347259     1.3574239980    -7.1533355038
 F     -4.3300166500     0.5092478862    -6.8330895085
 H     -2.5171232391     2.4047925441    -6.6692087399
 F     -3.1405308871     2.7982407411    -7.2145988945
 H     -2.7760278510     0.4699738242    -5.9453232650
 F     -2.0231214412     0.9472006699    -5.7302059111
          6
Energy: -17.57855175506063 Kcal/mole
 H     -4.1910542426     1.3605523126    -7.1443037039
 F     -4.3300898814     0.5090819363    -6.8335686246
 H     -2.5133824012     2.3716949728    -6.6590983656
 F     -3.1407082415     2.7703725563    -7.1961341879
 H     -2.8040935220     0.4953718912    -5.9648221864
 F     -2.0377509891     0.9445827135    -5.7371870410
