          22
Energy: -84.7168061571375 Kcal/mole
 H     -6.3827401296     2.7473385860    -2.7547808216
 F     -6.5188385269     2.8170967463    -3.6589379016
 H     -5.3960802021     3.0098998676    -4.8335374927
 F     -4.6767261211     3.2680974958    -5.3402451905
 H     -4.2239818146     6.5151127764     3.5249873521
 F     -4.1128128051     6.4194601107     4.4301840263
 H     -5.3038417756     3.2121697443    -0.8199555376
 F     -6.1379119328     3.0008579853    -1.1370727294
 H     -3.7915502050     4.7251052107    -5.1096200161
 F     -3.4779334543     5.4957365117    -4.7240542868
 H     -3.4597184182     6.2742045494    -1.0006207944
 F     -3.1951214151     6.7728072393    -0.2779363656
 H     -3.9246694718     4.7646511113     4.7820417854
 F     -3.9179552314     3.8510809198     4.8609938230
 H     -4.1053067686     3.0791474385     3.3755704028
 F     -4.2749399066     2.7532865435     2.5353750233
 H     -3.9307421407     5.5229391710    -3.1582733731
 F     -4.1586245983     5.4267979123    -2.2752583993
 H     -4.0720553686     3.3904866095     0.9778764767
 F     -3.9283251558     3.6146572931     0.1003924993
 H     -4.0393573867     6.1488964482     1.0481403051
 F     -4.4520585858     5.9130638124     1.8323275838
          22
Energy: -85.4938464152317 Kcal/mole
 H     -6.4640592380     3.8391967801    -2.8445796873
 F     -6.8590488125     4.3536363740    -3.4928266620
 H     -6.2466177844     4.5850574398    -5.0760769100
 F     -5.8230818333     4.6689367806    -5.8850704541
 H     -4.2896870746     5.8282593337     2.9731742124
 F     -4.9666178746     5.5246869809     3.5121524295
 H     -5.0844400311     3.3552183050    -1.1048273257
 F     -5.5599639761     2.9260982321    -1.7610452322
 H     -4.2600547919     5.2653074568    -5.6371791240
 F     -3.4684874203     5.5533810272    -5.2747929844
 H     -3.2430823145     6.2265090552    -1.2311926202
 F     -3.0033140025     6.6955626387    -0.4806002592
 H     -4.7928364308     3.9159868215     3.9743463955
 F     -4.6780388592     3.0125613661     4.0817380347
 H     -3.8440863503     2.4525961365     2.7683634601
 F     -3.4031442100     2.4390699829     1.9644504847
 H     -3.5529025611     5.4449014300    -3.6443859116
 F     -3.7228091946     5.3631109931    -2.7469835156
 H     -3.9714649742     3.3703074715     0.7596353602
 F     -4.2948986967     3.9724530358     0.1483250082
 H     -3.0162488066     6.3730001623     1.1164362547
 F     -2.9972145820     6.1205508591     1.9977965940
          22
Energy: -85.23164199181751 Kcal/mole
 H     -6.2507605613     3.2321337765    -3.5103271187
 F     -6.7278140675     3.5483223492    -4.2268002435
 H     -5.8654581284     4.1572965093    -5.5441225053
 F     -5.2502649666     4.4107813138    -6.1751310849
 H     -3.4395922030     6.3097987065     1.4182266519
 F     -4.3012859200     6.3443431894     1.7299631059
 H     -4.5592277441     2.8930484383    -1.8022099182
 F     -5.3623325375     2.6553091648    -2.1755619353
 H     -3.5925075707     4.3434548438    -6.0293873759
 F     -2.6921996740     4.2685505833    -5.8721485674
 H     -1.7406918504     5.0895208628    -2.2561995197
 F     -1.2030736280     5.5291948466    -1.6574153893
 H     -4.5361090265     5.0415355401     2.7972288476
 F     -4.5765286080     4.2466282826     3.2526162754
 H     -3.8347047939     3.0354496159     2.3399315089
 F     -3.3204939036     2.5744066717     1.7366773635
 H     -2.5889548900     4.2916325785    -4.2461586471
 F     -2.7224173283     4.2911171397    -3.3389230041
 H     -3.3205308315     3.0390474864     0.1902486982
 F     -3.3072218819     3.3284721532    -0.6797772980
 H     -1.7582778000     5.6922156161    -0.0082439634
 F     -1.9601411710     5.8653952263     0.8693373730
          22
Energy: -84.71135536698662 Kcal/mole
 H     -5.9122847343     3.8305275274    -2.4811623983
 F     -6.4317862489     4.5770348935    -2.5983542443
 H     -6.1959845222     5.5730268071    -3.9153987429
 F     -5.9291088138     6.0273909356    -4.6658783195
 H     -1.8158435076     6.3000348140     2.5722224166
 F     -2.2643734132     6.6312686580     3.3002293290
 H     -4.2099735319     2.7508373671    -1.5626920472
 F     -4.7887393877     2.5971965040    -2.2571800380
 H     -4.3692905436     6.0542361434    -5.0210498463
 F     -3.4544038054     6.0266230645    -5.0768062288
 H     -1.6156013473     4.8811051389    -1.6613580692
 F     -0.8830518312     4.7474294406    -1.1262029382
 H     -3.7941166589     5.9281259843     3.3084723469
 F     -4.5557205527     5.4224952209     3.2364581807
 H     -4.4749356425     3.8644020872     2.5612836410
 F     -4.4495463960     3.0669528215     2.1092669877
 H     -2.9172075904     5.4075531160    -3.5402502318
 F     -2.9328324507     5.1218407521    -2.6690365330
 H     -3.8186356213     3.1083427637     0.5304365141
 F     -3.3439810600     3.2182590336    -0.2464228433
 H     -1.0236280347     4.9957260420     0.5117894441
 F     -1.1594248992     5.3271123379     1.3559643872
          22
Energy: -85.16742410952031 Kcal/mole
 H     -6.4668167855     3.5464776376    -2.4209633873
 F     -6.8604643536     4.0259413763    -3.0962745123
 H     -6.6611402141     4.2129170112    -4.8297638872
 F     -6.2657985063     4.3989863477    -5.6359723814
 H     -0.9000427442     6.2453639553     2.3540432622
 F     -1.0615874536     6.5219258268     3.2132905130
 H     -4.8155209148     2.9395618073    -1.0257531052
 F     -5.5813842399     2.6375628547    -1.4296577969
 H     -4.5798827299     4.6018471056    -5.7083031063
 F     -3.7001747680     4.7854814464    -5.5258713913
 H     -2.2791012379     5.5733712212    -1.9305930882
 F     -1.8040935812     6.0717076359    -1.3248558977
 H     -2.3350071590     5.5430298415     3.6283732394
 F     -3.0522041468     4.9747479229     3.6881490006
 H     -3.2267945146     3.5100003710     2.8209448973
 F     -3.3508606760     2.8466380468     2.2001011050
 H     -3.2401691500     4.6658283224    -3.9111529893
 F     -3.0660535857     4.5411763132    -3.0195058356
 H     -3.4578210208     3.2560392970     0.6193720424
 F     -3.5477065694     3.5542369045    -0.2431172474
 H     -1.1731634305     5.5587426542     0.0547680691
 F     -0.8422330219     5.3981342627     0.8947555745
          22
Energy: -85.24375643461424 Kcal/mole
 H     -6.2804682580     2.8247207788    -2.6477862977
 F     -6.4830062062     2.9620605093    -3.5315312710
 H     -5.4974144012     2.4923922489    -4.8660603060
 F     -4.7654053471     2.3235082044    -5.3919214325
 H     -0.6580147810     4.3600127267     1.9481693739
 F     -0.8492201456     4.3739239697     2.8449056707
 H     -5.2249119241     2.7907482728    -0.5809486337
 F     -5.7788663873     2.3220260087    -1.1415937012
 H     -3.5016701005     3.2825793050    -5.0309675436
 F     -2.8159216768     3.7654323577    -4.6601697161
 H     -2.4872465975     5.3653560857    -1.4861215808
 F     -1.7492495453     5.7595364166    -1.1107934340
 H     -2.2242745943     4.7677992517     3.8714618569
 F     -3.0507660945     4.9442208486     4.2273778866
 H     -4.4588292296     4.2538661591     3.4591249597
 F     -5.0872532561     3.8973447708     2.8944438616
 H     -3.2837320342     4.2762536913    -3.1695292926
 F     -3.6283193046     4.5344225980    -2.3599013356
 H     -4.6756573675     3.7617104908     1.2905531909
 F     -4.3440916425     3.6381897662     0.4445651292
 H     -0.8631465946     4.7634772816    -0.1793546620
 F     -0.3341762860     4.2471701361     0.3633297252
          22
Energy: -84.94507393357564 Kcal/mole
 H     -6.4336606494     2.2466088250    -3.1087556739
 F     -6.5311926551     2.3413217340    -4.0156216908
 H     -5.2669018485     2.1653846748    -5.1500150689
 F     -4.5032616528     2.1981801978    -5.6566383067
 H     -2.1034946570     3.2288921917     2.1023167134
 F     -2.5343585745     3.2773948390     2.9103345213
 H     -5.5847307355     2.8244844819    -0.9678186147
 F     -6.0857753211     2.2122968647    -1.4315746331
 H     -3.8116087718     3.6827295765    -5.6294651493
 F     -3.4284995262     4.4992240230    -5.4637753043
 H     -2.6322311457     4.6141992126    -1.9760833347
 F     -1.8566034816     4.5127477173    -1.4975456447
 H     -3.4123215175     4.6188561423     3.4326240590
 F     -3.9503144529     5.3521096978     3.5500626589
 H     -4.9284464404     5.4325928952     2.3745274595
 F     -5.4608994481     5.4979090414     1.6308093707
 H     -3.7986602889     4.9008863119    -3.8815894511
 F     -3.9245411973     4.8457985444    -2.9749426981
 H     -4.9269522082     4.5308736033     0.3657827860
 F     -4.5796519713     3.9555538556    -0.2581392711
 H     -1.5077244825     3.5279894252    -0.1219673661
 F     -1.3132480775     3.0787709106     0.6534490730
          22
Energy: -85.91850914417957 Kcal/mole
 H     -6.3089614459     2.3444889944    -2.2606210728
 F     -6.9198220891     2.6288700344    -2.8826063609
 H     -6.4210557763     2.4842037872    -4.4718185978
 F     -5.9498983161     2.4325940731    -5.2568256583
 H     -1.5169097240     5.5093729163     1.7766818294
 F     -1.8993672687     5.6743225019     2.5936315590
 H     -4.6376445449     2.4588639403    -0.8011690961
 F     -5.1220278415     1.7977453363    -1.2124889393
 H     -4.9789672408     3.7629365902    -5.5419811444
 F     -4.4167025314     4.4760371258    -5.4145644159
 H     -2.9144147639     5.3488889102    -2.0864918404
 F     -2.2527152868     5.8677227513    -1.7206308731
 H     -2.8179188223     4.9540857935     3.8427262272
 F     -3.4952745831     4.4772081762     4.2360020990
 H     -4.4849631175     4.0362099522     3.0692931071
 F     -5.0483106648     3.8105347283     2.3818345744
 H     -4.0936247987     4.4761284205    -3.7497090992
 F     -3.9925142875     4.3274136894    -2.8505152417
 H     -4.3311454191     3.7300078819     0.9294428009
 F     -3.9078329896     3.6290516133     0.1222851837
 H     -1.3438798168     5.3772244120    -0.4452338827
 F     -0.8532385424     5.1383572951     0.2917210958
          22
Energy: -84.9214900616453 Kcal/mole
 H     -5.9333405013     1.1820183663    -1.7484446556
 F     -6.4293232098     1.0769433589    -2.5125450388
 H     -5.9435371054     1.3719762152    -4.0749817610
 F     -5.6639579644     1.5592809506    -4.9280007761
 H     -0.6371400033     5.9043930470     1.8104473072
 F     -0.6987916731     6.1645424564     2.6876077010
 H     -4.4688988758     2.2005236321    -0.2795968432
 F     -4.7480693813     1.3910553498    -0.6077948457
 H     -5.2014069203     3.1908991963    -4.9144936297
 F     -4.9904873734     4.0631701207    -4.7259588075
 H     -3.1592191306     5.6197577221    -1.7229764003
 F     -2.5044925014     6.1342014366    -1.3388283745
 H     -1.6567504655     5.3188326293     3.7175714648
 F     -2.2839663005     4.8103775676     4.1522699195
 H     -3.7638828838     4.3417782007     3.5464512925
 F     -4.4328286218     4.0379580585     2.9977310352
 H     -4.3728874365     4.4263756904    -3.2362550058
 F     -4.1951812506     4.4549462923    -2.3370924887
 H     -3.9946991210     3.7058825244     1.4319143920
 F     -3.7250140920     3.5478353974     0.5698354566
 H     -1.2899087914     5.5330271250    -0.4170855365
 F     -0.6549272450     5.2525759719     0.1821094121
          22
Energy: -85.17786886248176 Kcal/mole
 H     -5.4705988235     0.2501402995    -1.4009158397
 F     -6.1588173149     0.2477163459    -2.0069178468
 H     -5.8649102752     0.6705734914    -3.5445991174
 F     -5.5953966299     1.0470786068    -4.3361136738
 H     -0.2383168579     3.6759952135     2.2209731884
 F      0.1063589133     4.1009780057     2.9568245587
 H     -4.1707050682     0.8695965828     0.2632556625
 F     -4.1985999412     0.2105513654    -0.3737453403
 H     -5.6152063371     2.7337561605    -4.1561246063
 F     -5.5349616854     3.5904594926    -3.8390927519
 H     -3.5919869164     4.0373781931    -0.4184329239
 F     -2.9230144525     4.5210587237    -0.0191611033
 H     -0.8409133212     3.7951202491     4.3090725515
 F     -1.4827188611     3.6112783670     4.9377034537
 H     -2.7431524196     2.8123903902     4.3271770581
 F     -3.3618801720     2.3236461997     3.8589953790
 H     -4.9241692716     3.5475006464    -2.2677259396
 F     -4.6706674963     3.2669613029    -1.4323077649
 H     -3.8991087391     2.1320994864     2.2883245755
 F     -4.2061385920     2.0160573355     1.4320793486
 H     -1.7622286891     3.6309078812     0.6781448280
 F     -1.1550783838     3.0099130225     0.9724625003
          22
Energy: -84.49458897902562 Kcal/mole
 H     -5.4255422188    -0.0444256222    -1.3459678071
 F     -5.0287502546    -0.4158227862    -2.0845538100
 H     -5.1810016772     0.1527198878    -3.6818662559
 F     -5.3440181186     0.4744318192    -4.5249653445
 H     -0.6674249508     3.1825373225     2.7073661274
 F     -0.3127272215     3.2051320643     3.5526873672
 H     -5.5830608352     1.4200201457     0.4175444256
 F     -6.0247398830     0.7605912394    -0.0417617210
 H     -5.4355217173     2.1157901862    -4.2521599836
 F     -5.4616693781     2.9863171213    -3.9651266142
 H     -4.0010231720     4.4568733651    -0.2941323963
 F     -3.3783883588     4.9255317501     0.1891627595
 H     -1.2681344639     2.3576824136     4.7134254757
 F     -1.9303022606     1.8382438776     5.0775771151
 H     -3.0719957517     1.3804662020     4.0054601623
 F     -3.7324535025     1.1681325496     3.4057944392
 H     -5.1355250465     3.4624611438    -2.4516877259
 F     -4.8829982958     3.6152121843    -1.5834790184
 H     -4.4196440272     2.0885059381     2.0990866641
 F     -4.6937476309     2.4915442154     1.3223522427
 H     -2.3260087785     3.8131102617     0.9928794263
 F     -1.7415283887     3.2211907161     1.3787588447
          22
Energy: -85.4020617896717 Kcal/mole
 H     -6.1977107971    -0.6169822911    -0.2485305264
 F     -6.2782144338    -1.0203059505    -1.0681268845
 H     -6.9055344400    -0.1785990022    -2.3336098758
 F     -7.2195648498     0.3785651888    -2.9907567132
 H     -0.4098394766     3.1201549588     2.3705617819
 F     -0.3796016484     3.7822853388     3.0042478506
 H     -5.2886974934     0.6184472487     1.4515026955
 F     -5.9945357044     0.0795400582     1.2228972276
 H     -6.1464461242     1.6012902542    -3.2811392494
 F     -5.5266195853     2.2770728124    -3.2858292089
 H     -3.1060412999     2.5147184409    -0.6532752841
 F     -2.4370869384     3.1037166618    -0.4377059029
 H     -1.3629364892     3.7240109654     4.3690493169
 F     -2.0279897604     3.4746198385     4.9490469137
 H     -3.6765464479     2.9525960427     4.6522675070
 F     -4.4592886319     2.6303474896     4.2996210219
 H     -4.6203765094     1.8340024819    -1.9965245884
 F     -4.2387303546     1.4716781065    -1.2455543763
 H     -4.1678003630     1.9554524616     2.8139712344
 F     -3.9508673199     1.6539413887     1.9755679140
 H     -1.3193962570     2.4574165963     0.5468365175
 F     -0.7241180210     2.1006287043     1.1461988635
          22
Energy: -85.41372191753638 Kcal/mole
 H     -6.6908206027    -0.0272348385     0.3266764879
 F     -7.1722190797    -0.1379095733    -0.4459137072
 H     -6.6950057411    -0.7638479083    -1.9186688539
 F     -6.3710275198    -1.0253252109    -2.7357103047
 H     -0.1839276106     2.7649879028     2.3942769073
 F      0.1992627490     3.5080963427     2.7708987267
 H     -5.2362421253     0.8326658029     1.8401711432
 F     -5.7483577229     0.0834973064     1.7083637893
 H     -5.8787849267     0.5047611871    -3.2511974294
 F     -5.5600717131     1.3578777206    -3.3584497848
 H     -3.0987462922     2.1382582215    -0.7402677860
 F     -2.1882331233     2.2434092843    -0.7120184787
 H     -0.8907467554     4.0917797663     3.9797662891
 F     -1.6062041000     4.2361214255     4.5349016542
 H     -2.6405395629     2.9512867102     4.5562921493
 F     -3.1285893879     2.1824420054     4.4487087481
 H     -4.9935533687     1.7454037697    -1.8820439022
 F     -4.7033026679     1.8243822108    -1.0157841625
 H     -3.7667631685     1.9925831438     2.9042907991
 F     -4.1097700218     2.0107045420     2.0540514718
 H     -1.5418496300     1.8259199987     0.8141203011
 F     -1.2072147840     1.6659913463     1.6527688246
          22
Energy: -84.95953545694533 Kcal/mole
 H     -6.6131341397    -0.3560768646     0.7000856587
 F     -7.3118365043    -0.2119622764     0.1239476622
 H     -7.1765937291    -0.6487249613    -1.5787716859
 F     -6.9774333926    -0.7133254543    -2.4715487783
 H     -0.6552112823     3.4295403847     2.5167359942
 F     -0.8366266110     4.2376078754     2.9104419873
 H     -4.4173681490    -0.3791566223     1.8412091629
 F     -5.2797331714    -0.6312028188     1.6576654813
 H     -5.7666735229     0.1859938663    -3.0847335334
 F     -4.9778453750     0.6270561976    -3.2399854996
 H     -2.0796204238     0.9659201621    -0.7501161767
 F     -1.3366905581     1.4270972743    -0.4739642514
 H     -1.9185974170     4.0069875206     4.2788424881
 F     -2.5389894305     3.6451465366     4.8489949694
 H     -2.7891050000     2.0215591915     4.8746534983
 F     -3.0000304756     1.1320091689     4.8032378066
 H     -3.8802129881     0.3124140803    -1.9572345241
 F     -3.4667882346     0.1129252312    -1.1634000500
 H     -2.9352086008     0.4782029373     3.2785793654
 F     -2.9324260553     0.2130401371     2.4007582294
 H     -0.7460297341     1.7108960324     1.0791220194
 F     -0.4049656041     1.9367120637     1.8998359642
          22
Energy: -85.37197342717185 Kcal/mole
 H     -5.7810546608    -1.1781946213     1.0273338796
 F     -6.4084447015    -1.1840295010     0.3585763069
 H     -6.4490055531    -1.0133836673    -1.3644262783
 F     -6.4573501382    -0.7581158486    -2.2451405956
 H      0.4249062247     3.4492145346     2.2392765342
 F      0.2888337193     4.2240638934     2.7104259208
 H     -3.7564350503    -0.3635347781     2.0693736763
 F     -4.4335045528    -0.9818161578     2.0554444136
 H     -5.4494393897     0.4376537968    -2.4693100669
 F     -4.8607014306     1.1375105410    -2.4023985339
 H     -2.0624083863     1.4097021910    -0.2224355544
 F     -1.1814015041     1.6610751254    -0.2615190716
 H     -0.7051644622     4.1634272526     3.9817738366
 F     -1.2562936621     3.9939746523     4.6948176089
 H     -2.0302550508     2.5347075623     4.7630224796
 F     -2.3613618592     1.6820634806     4.6977894254
 H     -4.0629011592     1.0510838729    -1.0127339627
 F     -3.5878222196     0.8844969883    -0.2462890455
 H     -2.3710676977     0.9622305105     3.2889650928
 F     -2.4079846308     0.5919686564     2.4508527498
 H      0.0182365464     1.7943940424     0.8846134924
 F      0.6418115218     1.9969743755     1.5257097868
          22
Energy: -85.69416958619225 Kcal/mole
 H     -6.0227268701    -1.5729759871     1.3211343136
 F     -6.1659496320    -2.3442370758     0.8462316146
 H     -6.3601205210    -2.4253687483    -0.8494356893
 F     -6.3470203450    -2.3747669778    -1.7649447533
 H     -0.4656056804     3.4227037157     2.2489652134
 F     -0.7442236799     4.2868871217     2.3772151695
 H     -4.5772674044     0.1071393741     2.0403400784
 F     -5.4617100091    -0.1308804778     1.9956541857
 H     -4.9407123542    -1.8267540930    -2.4213566522
 F     -4.2176416588    -1.3373445510    -2.7015995285
 H     -1.7966427020     0.4182491861    -0.3364338716
 F     -0.9278487565     0.6425372857    -0.1472753968
 H     -1.6578438445     4.3385481961     3.7270270672
 F     -2.0655438016     4.2175111606     4.5394430819
 H     -2.4941407569     2.5596159808     4.7061591456
 F     -2.5908545565     1.6490071081     4.6579209675
 H     -3.6166634142    -0.5375721249    -1.4280720615
 F     -3.3670526665    -0.1407412744    -0.6399675312
 H     -2.7396357746     0.8702293270     3.1517161388
 F     -2.9809675310     0.6230547693     2.3022735443
 H     -0.4141772390     1.3859173659     1.3593157672
 F     -0.1816367889     1.8224889572     2.1314680739
          22
Energy: -85.59031809990023 Kcal/mole
 H     -5.9472484729    -0.9908920936     0.6427060397
 F     -6.4373895493    -1.6828276406     0.2935987153
 H     -6.0104161447    -2.3990160521    -1.1245292974
 F     -5.6599626126    -2.7124753392    -1.9118123452
 H     -0.8318466494     4.5427712116     1.3743417499
 F     -1.3076974267     5.2823159382     1.6342044736
 H     -4.1677524685     0.3874703389     1.4953321495
 F     -5.0142768922     0.3112081602     1.1511381920
 H     -4.1513215991    -2.3742041824    -2.4002992015
 F     -3.3043630594    -2.0521392282    -2.5410983398
 H     -1.2474184103     0.4092742885    -0.4129474107
 F     -0.5569374725     1.0095118536    -0.3509801614
 H     -1.8832456552     5.2229801721     3.2317555605
 F     -2.2053206221     5.0093022785     4.0633194326
 H     -2.4057549468     3.3820927033     4.2581027392
 F     -2.4861434804     2.4746216841     4.1535894239
 H     -2.7860456250    -1.1987456202    -1.2647290129
 F     -2.5253011201    -0.7204970197    -0.5270437283
 H     -2.5104046046     1.4051726764     2.8614466246
 F     -2.6103990373     0.8819629011     2.1150274096
 H     -0.3429028393     2.2768818891     0.7180703129
 F     -0.1244811148     2.9494355575     1.3018960689
          22
Energy: -85.22473941061043 Kcal/mole
 H     -5.5149191598    -1.4479373984     0.5795576287
 F     -5.4919124366    -2.3569730930     0.4611777458
 H     -4.7046975103    -3.4465540391    -0.5078172193
 F     -4.2081719165    -3.9877107617    -1.0569080463
 H     -1.1379343652     4.5153850467     1.0400401349
 F     -1.3980198159     5.3514883291     1.3123925893
 H     -4.7917025818     0.6041576171     0.8897114361
 F     -5.5858263747     0.1820487081     0.7106012176
 H     -3.2465152434    -3.1715794488    -2.0658090175
 F     -2.7798247984    -2.5059670862    -2.4901310782
 H     -2.1480529385     0.8852844222    -1.1316517249
 F     -1.6243421738     1.6327811719    -1.2203345539
 H     -2.1185562065     5.1075252510     2.8718740237
 F     -2.5911236422     4.8014700867     3.5956828763
 H     -2.9515909769     3.1734427099     3.8083589192
 F     -3.2685273043     2.3213780296     3.9284678070
 H     -3.0745115981    -1.2067677057    -1.5198129975
 F     -3.1918910990    -0.4609285222    -0.9993949300
 H     -3.4283634147     1.6282276465     2.3825730348
 F     -3.4432122031     1.3498204534     1.5089839161
 H     -1.0746955552     2.4749174457     0.0880051660
 F     -0.7660167658     2.9319217150     0.8206397972
          22
Energy: -85.46414957630192 Kcal/mole
 H     -5.5325149272    -0.7875596728     0.8177748356
 F     -5.7784959546    -1.5180638225     0.3210394720
 H     -4.8389523891    -2.8456825681    -0.1589370627
 F     -4.3318104611    -3.5104433480    -0.5354860907
 H     -0.1112601786     4.2405394670     1.1818132293
 F     -0.3509352336     5.0130194774     1.6139237495
 H     -4.2626187154     0.8613818935     1.7477296623
 F     -5.1406574661     0.5976856581     1.7677608335
 H     -3.2945421295    -2.8619071869    -1.6593395363
 F     -2.8104231977    -2.2785449914    -2.1752914805
 H     -1.9819413889     0.9631860863    -0.9036730853
 F     -1.3499164694     1.6167895695    -1.0229877442
 H     -1.0116039705     5.0990833900     3.1210145398
 F     -1.3398174285     4.8900796617     3.9513652895
 H     -1.7374114953     3.2533113223     4.0646174186
 F     -1.9416926403     2.3618662421     3.9976556178
 H     -2.9596352402    -0.9308705005    -1.2995247216
 F     -3.0938977770    -0.2402474172    -0.7113901043
 H     -2.5320485371     1.7670470918     2.5142994340
 F     -2.7518388115     1.4051779916     1.7008917935
 H     -0.3329086661     2.2548343181     0.1446591480
 F      0.2509206337     2.6976787835     0.6959495690
          22
Energy: -85.37588759290144 Kcal/mole
 H     -4.6547420974    -1.6207690057     1.0187585900
 F     -5.3362443402    -1.6807799125     0.4081503816
 H     -5.6150282225    -2.4455978414    -1.1288764146
 F     -5.5580684165    -2.7014871016    -2.0076057626
 H     -0.7897687652     4.6079617891     0.6889733742
 F     -1.1610244308     5.4202689394     0.8968563323
 H     -3.1760049035    -0.5042722170     2.0863998892
 F     -3.5429031536    -1.3339703620     2.2200997854
 H     -4.1656846619    -2.1117937588    -2.5949018901
 F     -3.3743235739    -1.6720884076    -2.7408328070
 H     -1.6072936405     0.7568526075    -0.9935215646
 F     -1.4494549316     1.6214399317    -1.2551791669
 H     -2.6518990765     5.2905206603     1.6574152794
 F     -3.3988757337     5.1541738702     2.1715401927
 H     -3.3047854597     3.7947567673     3.1452500839
 F     -3.2304329441     2.9882592193     3.5752761395
 H     -2.5111588856    -1.1214042058    -1.4647938859
 F     -2.0766425028    -0.8515819224    -0.7036891307
 H     -2.9386012809     1.6852128347     2.5731564544
 F     -2.7557212165     1.0910325127     1.8990691996
 H     -0.6585967172     2.5618113566    -0.1238167012
 F     -0.2655436574     3.0332097473     0.5574922224
          22
Energy: -85.14253646287703 Kcal/mole
 H     -5.0043484364    -1.8121301206     1.1668745496
 F     -5.6083368666    -1.9109776327     0.4840011019
 H     -5.3563437972    -2.9728956905    -0.8236088573
 F     -5.1307777990    -3.4304725195    -1.5856012627
 H     -1.7573601690     4.4665088934    -0.0798446018
 F     -2.3614941195     5.1405669655    -0.2266672338
 H     -3.3163449360    -0.7072916608     2.0792054119
 F     -3.9204924771    -1.3442673840     2.3440764685
 H     -3.8378056582    -2.8412669363    -2.4848151986
 F     -3.1665656230    -2.3640768683    -2.8880712637
 H     -1.2110179461     0.2954755212    -1.0047765540
 F     -0.6861943441     1.0314477576    -1.1590297683
 H     -3.5382771002     4.6880147346     0.7174807962
 F     -4.0682332845     4.3718849634     1.3957856027
 H     -3.4245276148     3.3137125568     2.4252338163
 F     -2.9578340545     2.6745013086     2.8883699744
 H     -2.5026847063    -1.4689863224    -1.6648652861
 F     -2.1260204884    -1.0351326743    -0.9501736890
 H     -2.3903737026     1.3465162841     2.1098377093
 F     -2.2053373980     0.5873819053     1.6298735848
 H     -0.7307404442     2.3442253841    -0.1349982691
 F     -0.8302635139     3.1345862398     0.3192196041
          22
Energy: -85.3675328126189 Kcal/mole
 H     -5.3202342330    -0.9760403721     0.6080253774
 F     -6.0155629441    -1.1317827653     0.0308327836
 H     -5.9487103759    -2.1249348087    -1.2716487170
 F     -5.9023739170    -2.6648337551    -2.0114129093
 H     -1.8023897468     4.5391663640    -0.5330247862
 F     -2.4835433673     5.0747208869    -0.2328580021
 H     -3.3697207367    -0.1242336321     1.3611332236
 F     -4.0515977196    -0.7145223028     1.5269405380
 H     -4.3638281892    -3.0457198029    -2.5698210106
 F     -3.4646929692    -3.0250786095    -2.7487589807
 H     -1.8785620340     0.3731219732    -1.7318752280
 F     -1.4433355074     1.0857069173    -2.1109392966
 H     -2.6624484173     5.2248764416     1.4659014351
 F     -2.6559777879     5.1730541358     2.3814130842
 H     -2.3108146741     3.6515810432     2.8971737260
 F     -2.1870037076     2.7471294522     2.9839329570
 H     -2.9337286654    -1.7320317571    -1.8506928306
 F     -2.7038192685    -1.0224321890    -1.3173082393
 H     -2.1770238306     1.7546453784     1.7140416894
 F     -2.2912328797     1.1077685863     1.0742013117
 H     -1.0448530140     2.5648164386    -1.4127080999
 F     -0.7625234293     3.3430909663    -1.0184140914
          22
Energy: -85.74587676341366 Kcal/mole
 H     -5.7592574764    -0.7842024397     0.0700360094
 F     -6.3077309656    -0.8188881845    -0.6640366919
 H     -6.2492339249    -2.0417926478    -1.7718374581
 F     -6.0545981811    -2.6560874059    -2.4242544086
 H     -2.1731998898     4.4304315311     0.1787528231
 F     -2.7561885191     5.0819736903     0.4553501349
 H     -3.8852524744    -0.1311405127     1.1648841303
 F     -4.5141482691    -0.7973089784     1.2048673117
 H     -4.5898209432    -2.3578015991    -3.2157157516
 F     -3.7574797182    -2.0623334094    -3.4622834583
 H     -2.2241942086     0.7363307142    -1.7377829871
 F     -1.9810063232     1.6022221102    -1.9166145911
 H     -3.0527024315     5.1282661519     2.1326193782
 F     -3.1098451607     4.9303905024     3.0261902684
 H     -2.6205576623     3.3526906266     3.3109126724
 F     -2.4068197313     2.4616763139     3.2748766999
 H     -3.0688827288    -1.2263028366    -2.2220005578
 F     -2.6666814118    -0.8394777990    -1.4943402724
 H     -2.6916746831     1.6218520714     1.8825768776
 F     -2.8220383736     1.1378449589     1.1147022633
 H     -1.3299596499     2.7596395220    -0.8527928698
 F     -1.0240811772     3.4004425825    -0.2725353428
          22
Energy: -85.73980208688651 Kcal/mole
 H     -6.3597791707    -0.6036720661    -0.5456023922
 F     -6.9935896908    -0.6982647489    -1.2015181253
 H     -6.5058321842    -1.8919511450    -2.2819846799
 F     -6.1401583194    -2.5262563511    -2.8340974675
 H     -1.9812871241     4.5745282980     0.2395123067
 F     -2.5809272236     5.1025437268     0.6895350373
 H     -4.3799080926     0.0158919215     0.6389374283
 F     -5.1605233384    -0.4575222502     0.7250063542
 H     -4.6940347693    -2.2150671181    -3.5676037232
 F     -3.8991471591    -1.8951239207    -3.8942212940
 H     -2.2343824771     0.9793610449    -2.2032846567
 F     -1.7986361974     1.7730198075    -2.3486116958
 H     -2.7939010859     5.0045653121     2.3192423703
 F     -2.8122584001     4.6970806737     3.1829582994
 H     -2.7708791287     3.0569822402     3.1258769810
 F     -2.7385710965     2.1493225513     2.9993895101
 H     -3.3466997456    -0.8982421497    -2.6975286916