          22
Energy: -87.2499510273545 Kcal/mole
 H     -5.2219975603    -1.3967466147    -2.3593605157
 F     -5.1506272690    -2.1926662168    -2.8091463187
 H     -5.9563632010    -2.4630844664    -4.2297888888
 F     -6.3406155331    -2.4932213784    -5.0618531363
 H     -1.4608204657     5.2806855992    -2.6356153414
 F     -1.6521955079     6.1122765795    -2.2998758076
 H     -4.7939017595     0.7444174900    -1.7708839875
 F     -5.3750961208     0.0578136583    -1.5929028296
 H     -5.7027693912    -1.3845933951    -6.1082241685
 F     -5.2733483297    -0.6883059681    -6.5225554019
 H     -3.3146315794     1.9550455055    -4.7287681991
 F     -2.7658969921     2.6739043032    -4.8804961848
 H     -2.4319724779     5.9722668730    -0.8531115534
 F     -2.8612300389     5.7163607943    -0.0842558938
 H     -2.9258548570     4.0873905139     0.1654479062
 F     -2.9450589513     3.1706070963     0.1707740635
 H     -4.6189967020     0.2050218789    -5.3273339256
 F     -4.3005140837     0.6139796104    -4.5708873672
 H     -3.4030763571     2.3915417549    -1.2048430999
 F     -3.7072306615     1.9924612467    -1.9723806606
 H     -1.8242879974     3.2864056126    -3.6619677268
 F     -1.3066416885     3.6740767401    -3.0118582008
          22
Energy: -87.24928758076842 Kcal/mole
 H     -5.2225419123    -1.3978772445    -2.3574522885
 F     -5.1505983924    -2.1926062395    -2.8092475457
 H     -5.9580895757    -2.4677812824    -4.2288379400
 F     -6.3405239529    -2.4929722232    -5.0619035819
 H     -1.4606738257     5.2801017489    -2.6340813618
 F     -1.6522032868     6.1123075514    -2.2999571817
 H     -4.7915161906     0.7424440751    -1.7706783810
 F     -5.3752226697     0.0579183434    -1.5929137365
 H     -5.7045661540    -1.3836987251    -6.1085881559
 F     -5.2732530156    -0.6883534283    -6.5225360932
 H     -3.3138600344     1.9548362147    -4.7269827153
 F     -2.7659379208     2.6739154056    -4.8805909006
 H     -2.4283651254     5.9711353249    -0.8514625171
 F     -2.8614214006     5.7164208203    -0.0843433714
 H     -2.9249645668     4.0873696764     0.1651579393
 F     -2.9451061791     3.1706082016     0.1707894456
 H     -4.6208793189     0.2020987516    -5.3249485922
 F     -4.3004142152     0.6141346755    -4.5710139036
 H     -3.4045470649     2.3907010221    -1.2038258385
 F     -3.7071526439     1.9925058457    -1.9724346239
 H     -1.8272536341     3.2866411579    -3.6597356105
 F     -1.3064843684     3.6740642450    -3.0119766094
          22
Energy: -87.24986513993505 Kcal/mole
 H     -5.2238159334    -1.3982875768    -2.3569357676
 F     -5.1505308085    -2.1925844723    -2.8092749460
 H     -5.9536133368    -2.4653682436    -4.2309850666
 F     -6.3407614070    -2.4931002293    -5.0617896818
 H     -1.4589295199     5.2805183110    -2.6341139410
 F     -1.6522958182     6.1122854538    -2.2999554534
 H     -4.7943118695     0.7452534652    -1.7689849921
 F     -5.3750743654     0.0577693117    -1.5930035669
 H     -5.7045065635    -1.3851924482    -6.1110457303
 F     -5.2732561768    -0.6882741897    -6.5224057246
 H     -3.3114651019     1.9525987571    -4.7289643558
 F     -2.7660649664     2.6740340975    -4.8804857792
 H     -2.4279307880     5.9719712836    -0.8509389544
 F     -2.8614444412     5.7163764746    -0.0843711452
 H     -2.9268759994     4.0874237046     0.1685080585
 F     -2.9450047821     3.1706053356     0.1706117295
 H     -4.6106742912     0.1996600707    -5.3243409324
 F     -4.2917016600     0.6098923087    -4.5687914824
 H     -3.4022258104     2.3922186873    -1.2055332562
 F     -3.7072757811     1.9924253370    -1.9723440494
 H     -1.8285718651     3.2897996084    -3.6605548066
 F     -1.3064144392     3.6738966965    -3.0119331530
          22
Energy: -87.25047601415261 Kcal/mole
 H     -5.2214646246    -1.3977783349    -2.3574560926
 F     -5.1506555400    -2.1926114864    -2.8092473440
 H     -5.9526782489    -2.4655054691    -4.2314169135
 F     -6.3408110113    -2.4930929498    -5.0617667733
 H     -1.4619121723     5.2799130525    -2.6343186682
 F     -1.6521375954     6.1123175613    -2.2999445931
 H     -4.7927826756     0.7439305414    -1.7690942748
 F     -5.3751554856     0.0578394898    -1.5929977697
 H     -5.7052035300    -1.3836150047    -6.1091125127
 F     -5.2732192043    -0.6883578694    -6.5225082773
 H     -3.3110428631     1.9527393268    -4.7267923017
 F     -2.7660873652     2.6740266406    -4.8806010016
 H     -2.4305167972     5.9706157494    -0.8528450302
 F     -2.8613072594     5.7164483826    -0.0842700323
 H     -2.9271234028     4.0874236667     0.1669682466
 F     -2.9449916579     3.1706053376     0.1706934130
 H     -4.6103587048     0.2017088421    -5.3255824942
 F     -4.2917184012     0.6097836261    -4.5687256204
 H     -3.4029013360     2.3906138175    -1.2044307041
 F     -3.7072399460     1.9925104717    -1.9724025372
 H     -1.8243728683     3.2873848421    -3.6624830821
 F     -1.3066371863     3.6740247942    -3.0118308624
          22
Energy: -87.24995758159697 Kcal/mole
 H     -5.2229018736    -1.3978690434    -2.3575241917
 F     -5.1505792972    -2.1926066745    -2.8092437315
 H     -5.9561705374    -2.4671401152    -4.2297414020
 F     -6.3406257535    -2.4930062356    -5.0618556553
 H     -1.4588662854     5.2804280735    -2.6338526089
 F     -1.6522991727     6.1122902407    -2.2999693165
 H     -4.7914691085     0.7425099033    -1.7702697815
 F     -5.3752251673     0.0579148513    -1.5929354118
 H     -5.7041599584    -1.3837872683    -6.1083139697
 F     -5.2732745634    -0.6883487313    -6.5225506382
 H     -3.3104511375     1.9519735388    -4.7282979104
 F     -2.7661187549     2.6740672639    -4.8805211326
 H     -2.4293962346     5.9701070259    -0.8523840002
 F     -2.8613667026     5.7164753692    -0.0842944889
 H     -2.9262368903     4.0874085268     0.1676763623
 F     -2.9450386853     3.1706061407     0.1706558491
 H     -4.6101788662     0.2033377021    -5.3265339421
 F     -4.2917279412     0.6096972189    -4.5686751483
 H     -3.4038034603     2.3892204708    -1.2033535999
 F     -3.7071920904     1.9925843855    -1.9724596751
 H     -1.8276658143     3.2877648088    -3.6600750309
 F     -1.3064625031     3.6740046379    -3.0119586040
          22
Energy: -87.25005719038127 Kcal/mole
 H     -5.2259477961    -1.3982847166    -2.3572916186
 F     -5.1504177181    -2.1925846240    -2.8092560689
 H     -5.9561930227    -2.4622871831    -4.2298967833
 F     -6.3406245607    -2.4932636724    -5.0618474127
 H     -1.4595701109     5.2813475506    -2.6365377360
 F     -1.6522618364     6.1122414645    -2.2998268767
 H     -4.7913993292     0.7428431571    -1.7687463256
 F     -5.3752288689     0.0578971730    -1.5930162276
 H     -5.7056781187    -1.3842241124    -6.1106365686
 F     -5.2731940285    -0.6883255577    -6.5224274297
 H     -3.3132573404     1.9539956091    -4.7287827621
 F     -2.7659698923     2.6739599978    -4.8804954123
 H     -2.4276317117     5.9705874244    -0.8512298009
 F     -2.8614603065     5.7164498852    -0.0843557165
 H     -2.9281397132     4.0874375576     0.1658385408
 F     -2.9449377450     3.1706046007     0.1707533413
 H     -4.6114915440     0.2006164869    -5.3245140811
 F     -4.2916583067     0.6098415731    -4.5687822972
 H     -3.4014669542     2.3874850714    -1.2033861156
 F     -3.7073160366     1.9926764444    -1.9724579502
 H     -1.8264322937     3.2863083302    -3.6601960572
 F     -1.3065279386     3.6740819007    -3.0119521838
          22
Energy: -87.24848254810362 Kcal/mole
 H     -5.2255077208    -1.3951701241    -2.3627378627
 F     -5.1504410631    -2.1927498459    -2.8089671583
 H     -5.9545030697    -2.4635136182    -4.2306351244
 F     -6.3407142088    -2.4931986129    -5.0618082454
 H     -1.4580317848     5.2816914675    -2.6365021767
 F     -1.6523434410     6.1122232205    -2.2998287630
 H     -4.7930359347     0.7434670296    -1.7717163351
 F     -5.3751420508     0.0578640780    -1.5928586755
 H     -5.7056912618    -1.3851966853    -6.1122986962
 F     -5.2731933312    -0.6882739649    -6.5223392576
 H     -3.3114278260     1.9529380538    -4.7272256068
 F     -2.7660669438     2.6740160986    -4.8805780158
 H     -2.4253255406     5.9698609071    -0.8501611416
 F     -2.8615826435     5.7164884252    -0.0844124064
 H     -2.9277083895     4.0874388174     0.1681303937
 F     -2.9449606257     3.1706045339     0.1706317638
 H     -4.6107635056     0.2021891166    -5.3256707411
 F     -4.2916969274     0.6097581487    -4.5687209391
 H     -3.4005033714     2.3931325748    -1.2066984887
 F     -3.7073671525     1.9923768574    -1.9722822365
 H     -1.8225382206     3.2866511163    -3.6635029381
 F     -1.3067345101     3.6740637167    -3.0117767614
          22
Energy: -87.24999824975636 Kcal/mole
 H     -5.2238572084    -1.3985673209    -2.3564515967
 F     -5.1505286189    -2.1925696325    -2.8093006301
 H     -5.9554607229    -2.4652421142    -4.2301310453
 F     -6.3406634075    -2.4931069202    -5.0618349857
 H     -1.4593873248     5.2801283789    -2.6334069044
 F     -1.6522715327     6.1123061388    -2.2999929601
 H     -4.7950824255     0.7450791061    -1.7721767308
 F     -5.3750334892     0.0577785610    -1.5928342525
 H     -5.7063561188    -1.3845166428    -6.1118455621
 F     -5.2731580621    -0.6883100396    -6.5223632953
 H     -3.3071042782     1.9494247603    -4.7284817796
 F     -2.7662962980     2.6742024707    -4.8805113787
 H     -2.4296600163     5.9713354689    -0.8521255766
 F     -2.8613527096     5.7164102032    -0.0843081976
 H     -2.9262036126     4.0874038679     0.1666420356
 F     -2.9450404506     3.1706063879     0.1707107177
 H     -4.6123304844     0.1991019401    -5.3233358578
 F     -4.2916138028     0.6099219163    -4.5688447993
 H     -3.4054581905     2.3886475914    -1.2024081310
 F     -3.7071043108     1.9926147754    -1.9725098300
 H     -1.8275688738     3.2889693844    -3.6608691472
 F     -1.3064676456     3.6739407379    -3.0119164779
          22
Energy: -87.24885748856006 Kcal/mole
 H     -5.2252184411    -1.3977409498    -2.3581271466
 F     -5.1504564087    -2.1926134696    -2.8092117461
 H     -5.9549349686    -2.4667388999    -4.2303260180
 F     -6.3406912975    -2.4930275191    -5.0618246428
 H     -1.4584689302     5.2812706070    -2.6357147194
 F     -1.6523202515     6.1122455462    -2.2998705358
 H     -4.7951013396     0.7451693305    -1.7718918614
 F     -5.3750324858     0.0577737749    -1.5928493642
 H     -5.7066103058    -1.3838429088    -6.1109728330
 F     -5.2731445781    -0.6883457797    -6.5224095916
 H     -3.3103386626     1.9508032281    -4.7335473545
 F     -2.7661247214     2.6741293462    -4.8802426617
 H     -2.4275858030     5.9677263257    -0.8521457833
 F     -2.8614627418     5.7166016599    -0.0843071257
 H     -2.9244198834     4.0873437988     0.1632585150
 F     -2.9451350733     3.1706095744     0.1708902057
 H     -4.6147968253     0.2031051177    -5.3244509054
 F     -4.2914829691     0.6097095569    -4.5687856486
 H     -3.4034773545     2.3908082802    -1.2043035050
 F     -3.7072093896     1.9925001559    -1.9724092848
 H     -1.8282357072     3.2893291446    -3.6602559618
 F     -1.3087954999     3.6742008349    -3.0099140109
          22
Energy: -87.24969009373847 Kcal/mole
 H     -5.2230595226    -1.3967194647    -2.3595784438
 F     -5.1505709343    -2.1926676570    -2.8091347581
 H     -5.9550737501    -2.4632245930    -4.2303805759
 F     -6.3406839355    -2.4932139450    -5.0618217486
 H     -1.4572104190     5.2805395395    -2.6331659222
 F     -1.6523870126     6.1122843277    -2.3000057436
 H     -4.7938656786     0.7451571738    -1.7678844237
 F     -5.3750980348     0.0577744197    -1.5930619495
 H     -5.7055100958    -1.3844490516    -6.1108403880
 F     -5.2732029417    -0.6883136252    -6.5224166175
 H     -3.3111840004     1.9529906990    -4.7261154022
 F     -2.7660798782     2.6740133059    -4.8806369096
 H     -2.4290031784     5.9704501387    -0.8520493840
 F     -2.8613875534     5.7164571679    -0.0843122395
 H     -2.9254917848     4.0873853620     0.1659037945
 F     -2.9450782114     3.1706073696     0.1707498797
 H     -4.6123784194     0.1988787536    -5.3231939063
 F     -4.2916112600     0.6099337558    -4.5688523294
 H     -3.4029918787     2.3922178882    -1.2052285517
 F     -3.7072351429     1.9924253794    -1.9723602132
 H     -1.8291841849     3.2849955150    -3.6569087537
 F     -1.3087451854     3.6744307239    -3.0100915726
          22
Energy: -87.2504520678207 Kcal/mole
 H     -5.2234793782    -1.3971026539    -2.3589685136
 F     -5.1505486620    -2.1926473297    -2.8091671135
 H     -5.9531945139    -2.4652216858    -4.2311852768
 F     -6.3407836246    -2.4931080038    -5.0617790611
 H     -1.4602380622     5.2805089900    -2.6348444103
 F     -1.6522264031     6.1122859482    -2.2999167037
 H     -4.7947602858     0.7449149871    -1.7717630806
 F     -5.3750505779     0.0577872672    -1.5928561957
 H     -5.7045386459    -1.3854067160    -6.1114426341
 F     -5.2732544749    -0.6882628233    -6.5223846697
 H     -3.3118103580     1.9529380193    -4.7285930741
 F     -2.7660466514     2.6740161005    -4.8805054748
 H     -2.4293469190     5.9698670204    -0.8524354748
 F     -2.8613693187     5.7164881010    -0.0842917582
 H     -2.9267161080     4.0874097369     0.1657327869
 F     -2.9450132639     3.1706060765     0.1707589513
 H     -4.6130228640     0.2011803862    -5.3241694219
 F     -4.2915770737     0.6098116595    -4.5688005806
 H     -3.4069078064     2.3904069896    -1.2027487429
 F     -3.7070274120     1.9925214434    -1.9724917614
 H     -1.8253953475     3.2850688067    -3.6599820591
 F     -1.3089461744     3.6744268359    -3.0099285408
          22
Energy: -87.2500190336747 Kcal/mole
 H     -5.2260707675    -1.3982885196    -2.3573055033
 F     -5.1504111947    -2.1925844223    -2.8092553324
 H     -5.9547007584    -2.4656451489    -4.2304700602
 F     -6.3407037218    -2.4930855401    -5.0618170017
 H     -1.4625080572     5.2807953194    -2.6368422057
 F     -1.6521059851     6.1122707591    -2.2998107253
 H     -4.7917235903     0.7432300496    -1.7683143012
 F     -5.3752116676     0.0578766492    -1.5930391455
 H     -5.7027281525    -1.3850257792    -6.1089088889
 F     -5.2733505173    -0.6882830311    -6.5225190791
 H     -3.3115447086     1.9527998658    -4.7282950843
 F     -2.7660607435     2.6740234292    -4.8805212825
 H     -2.4306680360     5.9706993236    -0.8529021397
 F     -2.8612992365     5.7164439492    -0.0842670027
 H     -2.9257090537     4.0873824783     0.1646547665
 F     -2.9450666858     3.1706075225     0.1708161378
 H     -4.6151294259     0.2022737089    -5.3238604394
 F     -4.2914653254     0.6097536613    -4.5688169714
 H     -3.4029476986     2.3890348699    -1.2035960203
 F     -3.7072374866     1.9925942312    -1.9724468152
 H     -1.8254811710     3.2883140335    -3.6618462945
 F     -1.3089416217     3.6742546842    -3.0098296474
          22
Energy: -87.24997240170495 Kcal/mole
 H     -5.2245035221    -1.3982435459    -2.3571250779
 F     -5.1504943335    -2.1925868080    -2.8092649035
 H     -5.9556725491    -2.4643430205    -4.2300636039
 F     -6.3406521706    -2.4931546150    -5.0618385633
 H     -1.4607455069     5.2797573146    -2.6332633166
 F     -1.6521994843     6.1123258229    -2.3000005771
 H     -4.7919135292     0.7436121899    -1.7674495830
 F     -5.3752015918     0.0578563776    -1.5930850168
 H     -5.7061995591    -1.3858792062    -6.1139995190
 F     -5.2731663672    -0.6882377588    -6.5222490329
 H     -3.3096845630     1.9511516887    -4.7294643745
 F     -2.7661594199     2.6741108612    -4.8804592543
 H     -2.4294993544     5.9721107962    -0.8517773153
 F     -2.8613612324     5.7163690738    -0.0843266721
 H     -2.9278829387     4.0874213634     0.1640463755
 F     -2.9449513663     3.1706054598     0.1708484115
 H     -4.6169346285     0.2013155939    -5.3225654489
 F     -4.2913695636     0.6098044870    -4.5688856677
 H     -3.4030196399     2.3902112157    -1.2041752852
 F     -3.7072336703     1.9925318287    -1.9724160866
 H     -1.8271428851     3.2874290329    -3.6600003922
 F     -1.3088534716     3.6743016314    -3.0099275683
          22
Energy: -87.24968227599759 Kcal/mole
 H     -5.2259383323    -1.3972597110    -2.3590964405
 F     -5.1504182201    -2.1926389982    -2.8091603273
 H     -5.9519082374    -2.4658802741    -4.2317649315
 F     -6.3408518586    -2.4930730673    -5.0617483118
 H     -1.4616338463     5.2799040445    -2.6341377298
 F     -1.6521523600     6.1123180392    -2.2999541915
 H     -4.7936074066     0.7432820283    -1.7742652002
 F     -5.3751117355     0.0578738919    -1.5927234641
 H     -5.7064942032    -1.3842294183    -6.1115044441
 F     -5.2731507371    -0.6883252762    -6.5223813909
 H     -3.3103592449     1.9513932695    -4.7307437936
 F     -2.7661236296     2.6740980459    -4.8803913841
 H     -2.4283142186     5.9690889917    -0.8521100805
 F     -2.8614241011     5.7165293736    -0.0843090197
 H     -2.9225282029     4.0873137862     0.1653314647
 F     -2.9452354226     3.1706111665     0.1707802405
 H     -4.6132428296     0.1986361420    -5.3226933938
 F     -4.2915654050     0.6099466258    -4.5688788805
 H     -3.4027541283     2.3898108063    -1.2040733182
 F     -3.7072477550     1.9925530695    -1.9724214957
 H     -1.8279630458     3.2874838247    -3.6593782423
 F     -1.3088099640     3.6742987248    -3.0099605719
          22
Energy: -87.24909338937589 Kcal/mole
 H     -5.2264807811    -1.3978314684    -2.3581787315
 F     -5.1503894445    -2.1926086678    -2.8092090096
 H     -5.9542749426    -2.4636988221    -4.2307345719
 F     -6.3407263104    -2.4931887882    -5.0618029700
 H     -1.4594840915     5.2808424596    -2.6352390593
 F     -1.6522663995     6.1122682585    -2.2998957685
 H     -4.7938826003     0.7446338243    -1.7699843297
 F     -5.3750971371     0.0578021822    -1.5929505544
 H     -5.7061406665    -1.3841782599    -6.1110453626
 F     -5.2731694914    -0.6883279901    -6.5224057441
 H     -3.3103150442     1.9511865109    -4.7315842037
 F     -2.7661259743     2.6741090139    -4.8803468023
 H     -2.4263351870     5.9698491546    -0.8507393083
 F     -2.8615290841     5.7164890487    -0.0843817360
 H     -2.9280417845     4.0874159135     0.1629999383
 F     -2.9449429399     3.1706057489     0.1709039226
 H     -4.6123713089     0.2005740822    -5.3241181442
 F     -4.2916116372     0.6098438225    -4.5688033008
 H     -3.4028277702     2.3913257197    -1.2048293553
 F     -3.7072438485     1.9924727069    -1.9723813897
 H     -1.8324114492     3.2870004966    -3.6555058526
 F     -1.3085739864     3.6743243643    -3.0101659932
          22
Energy: -87.25049640517027 Kcal/mole
 H     -5.2251358082    -1.3978457323    -2.3579288768
 F     -5.1504607922    -2.1926079111    -2.8092222638
 H     -5.9537420204    -2.4642479819    -4.2309633012
 F     -6.3407545807    -2.4931596566    -5.0617908364
 H     -1.4630767925     5.2798202776    -2.6347478236
 F     -1.6520758150     6.1123224828    -2.2999218274
 H     -4.7932189070     0.7443464137    -1.7689154807
 F     -5.3751323445     0.0578174287    -1.5930072543
 H     -5.7042284569    -1.3852090484    -6.1107824882
 F     -5.2732709297    -0.6882733091    -6.5224196890
 H     -3.3110157841     1.9520367263    -4.7300287600
 F     -2.7660888017     2.6740639120    -4.8804293150
 H     -2.4302458908     5.9707197918    -0.8526586974
 F     -2.8613216303     5.7164428634    -0.0842799168
 H     -2.9242291880     4.0873688375     0.1693276834
 F     -2.9451451893     3.1706082461     0.1705682503
 H     -4.6122707654     0.1996714871    -5.3236710537
 F     -4.2916169708     0.6098917031    -4.5688270179
 H     -3.4020779652     2.3895282941    -1.2041955907
 F     -3.7072836239     1.9925680562    -1.9724150094
 H     -1.8257866528     3.2862325490    -3.6603668759
 F     -1.3089254166     3.6743651021    -3.0099081272
          22
Energy: -87.25030532256396 Kcal/mole
 H     -5.2213447961    -1.3975529350    -2.3578340989
 F     -5.1506618966    -2.1926234433    -2.8092272916
 H     -5.9558999231    -2.4650675468    -4.2299336450
 F     -6.3406401089    -2.4931161806    -5.0618454573
 H     -1.4602498093     5.2804428279    -2.6346867874
 F     -1.6522257799     6.1122894580    -2.2999250652
 H     -4.7918391868     0.7432495220    -1.7686226533
 F     -5.3752055355     0.0578756163    -1.5930227881
 H     -5.7067009552    -1.3846529482    -6.1124412449
 F     -5.2731397693    -0.6883028089    -6.5223316957
 H     -3.3090577541     1.9511747264    -4.7271183567
 F     -2.7661926707     2.6741096391    -4.8805837052
 H     -2.4266525299     5.9707716453    -0.8506138759
 F     -2.8615122498     5.7164401127    -0.0843883899
 H     -2.9253815763     4.0873747414     0.1645426599
 F     -2.9450840577     3.1706079330     0.1708220848
 H     -4.6122412807     0.1999146753    -5.3238156829
 F     -4.2916185349     0.6098788025    -4.5688193456
 H     -3.4032980893     2.3908118951    -1.2043762920
 F     -3.7072188992     1.9924999641    -1.9724054236
 H     -1.8261646711     3.2889789405    -3.6616976318
 F     -1.3089053636     3.6742194124    -3.0098375336
          22
Energy: -87.24898572031697 Kcal/mole
 H     -5.2212218307    -1.3983379983    -2.3564350763
 F     -5.1506684196    -2.1925817975    -2.8093015065
 H     -5.9530613549    -2.4637704892    -4.2312974909
 F     -6.3407906884    -2.4931849865    -5.0617731084
 H     -1.4607867395     5.2818892711    -2.6385615969
 F     -1.6521972970     6.1122127275    -2.2997195155
 H     -4.7935107317     0.7451733873    -1.7666355041
 F     -5.3751168639     0.0577735596    -1.5931282018
 H     -5.7070795504    -1.3838253230    -6.1114380336
 F     -5.2731196857    -0.6883467125    -6.5223849138
 H     -3.3103367377     1.9519729519    -4.7278922284
 F     -2.7661248235     2.6740672951    -4.8805426530
 H     -2.4314266855     5.9710973762    -0.8531949438
 F     -2.8612589919     5.7164228334    -0.0842514702
 H     -2.9278336076     4.0874323079     0.1659161461
 F     -2.9449539832     3.1706048792     0.1707492245
 H     -4.6160770314     0.1998721139    -5.3221514582
 F     -4.2914150571     0.6098810603    -4.5689076289
 H     -3.4005404101     2.3920036523    -1.2060938211
 F     -3.7073651877     1.9924367441    -1.9723143127
 H     -1.8247602871     3.2892696092    -3.6629808184
 F     -1.3089798629     3.6742039931    -3.0097694635
          22
Energy: -87.24995816005742 Kcal/mole
 H     -5.2254719024    -1.3983987176    -2.3570121097
 F     -5.1504429632    -2.1925785765    -2.8092708962
 H     -5.9549029868    -2.4650520850    -4.2303959910
 F     -6.3406929941    -2.4931170008    -5.0618209309
 H     -1.4587186619     5.2800013133    -2.6327014100
 F     -1.6523070038     6.1123128793    -2.3000303849
 H     -4.7925317604     0.7433077398    -1.7706820837
 F     -5.3751687960     0.0578725279    -1.5929135401
 H     -5.7053827787    -1.3833308051    -6.1088221002
 F     -5.2732096956    -0.6883729456    -6.5225236830
 H     -3.3110143229     1.9521234580    -4.7296077402
 F     -2.7660888792     2.6740593111    -4.8804516491
 H     -2.4260501504     5.9710943970    -0.8501644145
 F     -2.8615442047     5.7164229915    -0.0844122327
 H     -2.9259656181     4.0873970730     0.1662409347
 F     -2.9450530757     3.1706067483     0.1707319952
 H     -4.6122249663     0.2014419655    -5.3246498198
 F     -4.2916194003     0.6097977833    -4.5687750966
 H     -3.4045324428     2.3906253200    -1.2037923809
 F     -3.7071534196     1.9925098615    -1.9724363988
 H     -1.8296413386     3.2860951176    -3.6572017445
 F     -1.3087209344     3.6743723925    -3.0100760301
          22
Energy: -87.24979711402396 Kcal/mole
 H     -5.2217413457    -1.3975351590    -2.3579276980
 F     -5.1506408606    -2.1926243863    -2.8092223264
 H     -5.9524444699    -2.4664655983    -4.2314949133
 F     -6.3408234127    -2.4930420172    -5.0617626356
 H     -1.4611042801     5.2794596839    -2.6327250735
 F     -1.6521804522     6.1123416115    -2.3000291296
 H     -4.7933670519     0.7440454988    -1.7705714081
 F     -5.3751244858     0.0578333915    -1.5929194112
 H     -5.7037317502    -1.3851573996    -6.1101758125
 F     -5.2732972788    -0.6882760490    -6.5224518717
 H     -3.3090976601     1.9507059392    -4.7294878750
 F     -2.7661905537     2.6741345072    -4.8804580077
 H     -2.4314087353     5.9703439320    -0.8534340229
 F     -2.8612599441     5.7164628019    -0.0842387876
 H     -2.9287160010     4.0874376975     0.1642134706
 F     -2.9449071742     3.1706045933     0.1708395475
 H     -4.6114492409     0.2025562755    -5.3255789575
 F     -4.2916605507     0.6097386717    -4.5687258080
 H     -3.4029845108     2.3924306971    -1.2053424197
 F     -3.7072355338     1.9924140904    -1.9723541728
 H     -1.8268195582     3.2862947056    -3.6595818422
 F     -1.3088706233     3.6743618048    -3.0099497714
          22
Energy: -87.24992090850259 Kcal/mole
 H     -5.2208440357    -1.3972112331    -2.3583582984
 F     -5.1506884608    -2.1926415698    -2.8091994840
 H     -5.9541993139    -2.4628849675    -4.2307990447
 F     -6.3407303223    -2.4932319613    -5.0617995498
 H     -1.4608036772     5.2788123824    -2.6309260252
 F     -1.6521963985     6.1123759494    -2.3001245650
 H     -4.7949168096     0.7453417631    -1.7706272469
 F     -5.3750422747     0.0577646277    -1.5929164491
 H     -5.7042470177    -1.3855609842    -6.1113984206
 F     -5.2732699451    -0.6882546397    -6.5223870152
 H     -3.3081503834     1.9504452942    -4.7273496398
 F     -2.7662408046     2.6741483338    -4.8805714361
 H     -2.4307486516     5.9724098897    -0.8523792739
 F     -2.8612949600     5.7163532076    -0.0842947396
 H     -2.9271856410     4.0874305636     0.1688893374
 F     -2.9449883563     3.1706049717     0.1705915036
 H     -4.6133114775     0.2010143309    -5.3239566633
 F     -4.2915617634     0.6098204683    -4.5688118670
 H     -3.4042057097     2.3917735622    -1.2045170808
 F     -3.7071707520     1.9924489499    -1.9723979551
 H     -1.8259841995     3.2868735859    -3.6605920084
 F     -1.3089149372     3.6743310966    -3.0098961844
          22
Energy: -87.25038723125857 Kcal/mole
 H     -5.2224285861    -1.3970190481    -2.3589473282
 F     -5.1506044041    -2.1926517648    -2.8091682373
 H     -5.9551781689    -2.4647478953    -4.2302786868
 F     -6.3406783963    -2.4931331373    -5.0618271536
 H     -1.4608066606     5.2799198384    -2.6337041164
 F     -1.6521962403     6.1123172014    -2.2999771937
 H     -4.7942712088     0.7443403503    -1.7723809519
 F     -5.3750765223     0.0578177503    -1.5928234191
 H     -5.7066678995    -1.3836697490    -6.1107409107
 F     -5.2731415229    -0.6883549654    -6.5224218946
 H     -3.3087804624     1.9508604156    -4.7276195709
 F     -2.7662073803     2.6741263125    -4.8805571169
 H     -2.4282137098     5.9726108514    -0.8508853665
 F     -2.8614294328     5.7163425471    -0.0843739879
 H     -2.9267211712     4.0874142599     0.1666222504
 F     -2.9450129953     3.1706058366     0.1707117673
 H     -4.6117407597     0.1992148553    -5.3236476989
 F     -4.2916450863     0.6099159264    -4.5688282568
 H     -3.4044354212     2.3889362824    -1.2029581876
 F     -3.7071585663     1.9925994610    -1.9724806508
 H     -1.8273315454     3.2858114865    -3.6588841828
 F     -1.3088434636     3.6743874385    -3.0099867806
          22
Energy: -87.2494290727659 Kcal/mole
 H     -5.2264749317    -1.3969918950    -2.3596605745
 F     -5.1503897548    -2.1926532052    -2.8091304013
 H     -5.9504123254    -2.4644104371    -4.2325172455
 F     -6.3409312133    -2.4931510387    -5.0617084033
 H     -1.4569323594     5.2816345129    -2.6357242996
 F     -1.6524017630     6.1122262419    -2.2998700276
 H     -4.7931582725     0.7438980605    -1.7704569916
 F     -5.3751355610     0.0578412128    -1.5929254807
 H     -5.7062681892    -1.3838741653    -6.1106655073
 F     -5.2731627266    -0.6883441216    -6.5224258945
 H     -3.3105395790     1.9526756808    -4.7253159397
 F     -2.7661140633     2.6740300169    -4.8806793192
 H     -2.4301375661     5.9701421699    -0.8527888272
 F     -2.8613273767     5.7164735049    -0.0842730137
 H     -2.9262805023     4.0874023216     0.1659929271
 F     -2.9450363718     3.1706064699     0.1707451514
 H     -4.6137552027     0.2025123190    -5.3245765851
 F     -4.2915382248     0.6097410035    -4.5687789815
 H     -3.4049858192     2.3893384060    -1.2029490947
 F     -3.7071293690     1.9925781293    -1.9724811332
 H     -1.8267757823     3.2905336493    -3.6621291147
 F     -1.3088729455     3.6741369387    -3.0098146445
          22
Energy: -87.24909417756459 Kcal/mole
 H     -5.2214347885    -1.3977389035    -2.3575207954
 F     -5.1506571227    -2.1926135781    -2.8092439116
 H     -5.9555864832    -2.4682690265    -4.2299772134
 F     -6.3406567362    -2.4929463495    -5.0618431461
 H     -1.4633707893     5.2806867928    -2.6370585425
 F     -1.6520602192     6.1122765162    -2.2997992491
 H     -4.7938858195     0.7441273004    -1.7719478123
 F     -5.3750969663     0.0578290521    -1.5928463961
 H     -5.7027808551    -1.3866141893    -6.1116521355
 F     -5.2733477216    -0.6881987696    -6.5223735562
 H     -3.3078066850     1.9497478835    -4.7294452646
 F     -2.7662590370     2.6741853298    -4.8804602681
 H     -2.4327147316     5.9689220610    -0.8546296298
 F     -2.8611906640     5.7165382289    -0.0841753634
 H     -2.9236793864     4.0873428987     0.1655653294
 F     -2.9451743550     3.1706096221     0.1707678345
 H     -4.6142164807     0.1996982597    -5.3228559690