          22
Energy: 0.40517255017706333 Kcal/mole
 H      1.9446454341     4.4713896176     1.7433256341
 F      2.6148671543     3.8455367229     1.7433256341
 H      3.6433717039    -4.5993917821     0.7144277844
 F      2.7849716863    -4.2768419260     0.7144277844
 H     -2.4912459295     1.2779668276    -4.8564770864
 F     -1.5742459295     1.2779668276    -4.8564770864
 H      0.5703960526     0.5551692910     2.3793238024
 F     -0.3433397288     0.5551692910     2.4566278890
 H      4.4031839288     4.4859253295    -4.3760251169
 F      4.5790943843     3.5859561568    -4.3760251169
 H     -2.4868857174    -0.5616447996     1.2372242059
 F     -2.9428787549    -0.5616447996     2.0328116303
 H     -1.7321348317    -1.0325012870    -1.5136799521
 F     -0.8393189623    -1.0325012870    -1.7228899504
 H      4.8202481034    -2.6180089980     4.3911616421
 F      5.7372481034    -2.6180089980     4.3911616421
 H     -1.6003869711     4.3864267101    -0.7286574720
 F     -1.4826841631     3.4770120363    -0.7286574720
 H     -2.7257462491    -4.6045438997     2.9576733926
 F     -3.1838297195    -4.6045438997     3.7520590257
 H      2.5922835865    -1.2673527681    -4.2693727678
 F      3.5092835865    -1.2673527681    -4.2693727678
