          6
Energy: -0.010503296336785909 Kcal/mole
 Xe    10.3454409484    22.9414068457   -26.5143451803
 Xe     4.9749898342    -5.1603229551    26.5583602827
 Xe    27.0057080211    23.0942460131    11.7106682749
 Xe    -5.0735165627    15.6938138944    21.2235858363
 Xe    10.4718112118    16.4355944977   -19.9924584148
 Xe   -13.8393538031   -13.3365429752   -19.6625657964
