          6
Energy: -8.369166846473881E-5 Kcal/mole
 Xe   -11.9010462012   -21.4240963408   -37.7442349235
 Xe    11.5402223864   -24.4606119803    27.1801697845
 Xe   -34.2247679223   -38.4279121443    -2.6639357760
 Xe    32.0872777830   -17.8689682580    27.1293967728
 Xe    33.7518419784     9.1411997731    18.7446220980
 Xe    15.0711436693    36.2343452585    23.5132861327
          6
Energy: -2.019193417749811E-4 Kcal/mole
 Xe   -24.3603225747   -10.5339811101   -20.4265777628
 Xe   -13.4742322020    27.0116274479    -0.7644295631
 Xe    -4.0553284106    -7.1240655848   -14.5928544003
 Xe    21.5688528104   -23.3416723730    12.6508696954
 Xe    13.3130025568    28.9309335894    28.5766780072
 Xe     3.2620822941    20.7054967200    -8.6558221030
          6
Energy: -1.2287334155678857E-5 Kcal/mole
 Xe   -31.5708425723    -0.2246994948   -36.7328644843
 Xe   -22.9634297748    23.6498507813    18.2981934773
 Xe    15.2502078373    15.9618313474   -26.7112656269
 Xe    14.5528519695   -17.4788150748    25.2415839446
 Xe    28.7092016180    28.6914325561    24.7717024099
 Xe   -37.4857251859    40.6167673665    -0.9396997423
          6
Energy: -0.29197387279206843 Kcal/mole
 Xe   -40.2666043248   -11.4266126916    12.1218160174
 Xe    -9.9244639973    35.5706478835   -21.9069557102
 Xe    29.7474610494   -28.8354771585   -35.9988050301
 Xe    25.5038370359    20.4205707852    -1.7793881602
 Xe    24.8206891832    15.7262303400     0.0534981953
 Xe   -28.5345043817    40.4968199317    -9.8752709495
          6
Energy: -1.4378256722867191E-5 Kcal/mole
 Xe   -27.3339507103   -16.6322357971   -32.7102472713
 Xe   -14.3505713826    30.9800076728    20.7324284526
 Xe     0.3374795780    -8.5833035612   -23.6423203085
 Xe    13.2757421448    29.2356040173    -5.2435342811
 Xe    37.8241186852   -25.6333183276    33.5205023420
 Xe   -18.1614386162    28.6005020492   -37.3626910889
          6
Energy: -0.002611475164128712 Kcal/mole
 Xe   -28.9911776314   -27.5598825735     7.5887678628
 Xe   -27.7574723162    23.1349155406    18.8883427616
 Xe     0.2760202632     7.1770078678   -27.8864953996
 Xe   -30.7456364368    24.3368277257     7.7198032634
 Xe    25.6844631754    -9.3026014748    35.2811328355
 Xe   -14.5063811061    33.6662763087   -38.0653437305
          6
Energy: -0.43300794802230436 Kcal/mole
 Xe   -27.4958504795   -40.5945504965    36.4243835815
 Xe   -34.7289036890    37.9647110797    34.4502740906
 Xe   -15.7476149939     5.4350362920   -24.6825133089
 Xe   -33.6643846115    37.9758689849    38.7365750397
 Xe    21.5310969296    34.3245129629     9.8673032749
 Xe   -37.1528847755    23.9587275329   -37.1142565092
          6
Energy: -0.8636136521601241 Kcal/mole
 Xe   -23.0598558438     4.1879409042    40.2039759003
 Xe   -38.2733365713    34.4404264735    34.7133135079
 Xe   -24.9160674587    -7.1224223116    -1.7378065503
 Xe   -41.2101698554    36.2464310121    37.3912224796
 Xe    27.6442111529   -33.0109716168    12.7572912303
 Xe   -28.4804766492    -8.2969859970     0.5693260811
          6
Energy: -0.8631795552710604 Kcal/mole
 Xe    24.3946317434    -3.6219339073    -9.8550746384
 Xe   -31.8912777879    32.4680963132    31.8374018491
 Xe   -34.6988118045   -14.7961135790     4.0055676601
 Xe   -35.6226852350    32.2154157720    34.1471350730
 Xe    -7.3847119245   -29.0850509977     7.3287578655
 Xe   -34.7321602449   -18.0417025228     1.0889895960
          6
Energy: -3.0305711345111286 Kcal/mole
 Xe   -27.8347113636   -17.2482315184     0.6196228451
 Xe   -32.0869001712    31.8566993194    31.5679452468
 Xe   -30.3123191251   -15.4684715779     3.8231710989
 Xe   -35.4119803115    32.1632077701    34.4590172506
 Xe   -29.7966150205   -19.8348573065     3.6035192333
 Xe   -32.2267310773   -17.7357520752     0.5496373263
