          6
Energy: -0.24460229870354896 Kcal/mole
 Xe   -23.0503290967     0.9227662509    21.9872642499
 Xe   -24.0888441240    -1.4075011928    26.6181759744
 Xe   -27.1993459199   -11.6615740988    -5.1280117313
 Xe   -34.7659742756    27.3353850106     3.1111838193
 Xe   -17.9833728528   -22.1395972797    10.9813874899
 Xe   -40.3690690097     9.6249977366    -3.9554079583
          6
Energy: -1.8173951415149296E-4 Kcal/mole
 Xe   -41.2801213958     9.8938501156     3.4778897397
 Xe   -23.6549447048    16.7675810907    40.9057589842
 Xe     3.3713946907   -16.8064915239   -17.7341845057
 Xe   -12.6923068125     1.4640168724    32.0886319419
 Xe   -29.0108148933    -0.4049238820    -9.7742700158
 Xe   -30.7911504345     6.7612379330   -36.5707284930
          6
Energy: -1.6102307256555467E-5 Kcal/mole
 Xe   -33.5256665018   -18.0302222261   -25.6130945978
 Xe     9.9850343322    24.4862712312    33.8452468250
 Xe    39.2811446500   -20.4881820242     5.8483793719
 Xe    27.9247217905    40.8907503898    -9.5823470389
 Xe   -37.4194612158    -3.2316886020     3.1208498404
 Xe   -10.4398697635     2.5764094714   -22.0418404314
          6
Energy: -4.47514151680451E-5 Kcal/mole
 Xe   -26.8955741494   -22.5067090586   -35.2452747954
 Xe    -6.7245147929     2.8990409027    37.8813719737
 Xe    27.6959462107   -18.0105964808    -9.2327623588
 Xe   -26.3474037117    40.0947405270    -3.3887352902
 Xe   -30.4455019014   -32.6737664016    13.3457701976
 Xe   -17.8081511150   -11.3997186255    18.1578779482
          6
Energy: -1.111519634503539E-4 Kcal/mole
 Xe   -26.4936771794   -35.8297358944   -18.7456443897
 Xe    13.3273536651    18.7799584673    33.2255353681
 Xe    30.5404241031    -7.0381179778   -37.9248464705
 Xe    15.3246513630    22.0788929215   -41.1781837700
 Xe   -25.7632477818     5.7211184180   -35.0586871243
 Xe    -8.1014301438    17.1400599558   -35.5712485279
          6
Energy: -0.4326703167811554 Kcal/mole
 Xe     1.6043743793   -29.2542338406    31.1870318725
 Xe   -17.5422683350     2.5124628829    34.9855523938
 Xe    29.4317057343    -1.5405314722   -13.2637916982
 Xe   -15.4245466608   -15.2127580676   -21.7011480352
 Xe    -2.7218954614    32.2279731242   -28.2923884333
 Xe     0.6194186034    31.0542044646   -25.6182129829
          6
Energy: -0.8280740610733959 Kcal/mole
 Xe   -12.3389448355   -17.0797225090    32.4561763255
 Xe   -12.1916643621   -18.4789135679    28.3658115941
 Xe    28.2452848769   -22.3548406153   -20.0010159043
 Xe    26.0153668111    29.7262608670    15.4362729441
 Xe    -7.4036006847    36.6829327934   -35.6572153250
 Xe    -3.3996407633    38.5730020180   -34.2413589785
          6
Energy: -0.7582803437388533 Kcal/mole
 Xe    -1.2654722032   -13.8092588873    38.3691084165
 Xe    -3.4212054707   -17.2204441206    39.6094682496
 Xe    14.0914080723   -33.5654772186   -28.5411773824
 Xe    28.5295505175    -1.7329343053    31.5085937479
 Xe     1.2278132832    39.4910505585   -41.2379477739
 Xe    -2.0975631580    37.6287946979   -39.5182944346
          6
Energy: -0.8323207528810002 Kcal/mole
 Xe     2.9208352849    -8.5208404117    41.1833813310
 Xe     3.2763949169    -5.7255601571    37.9923938140
 Xe    31.6776273134   -27.0632025084     3.5931694217
 Xe   -32.8570104473    16.4604374703   -33.6818524092
 Xe    -3.9956555655    32.9565827694   -38.8671123484
 Xe    -7.7915047104    30.7660927469   -37.7632542925
          6
Energy: -2.597927980212225 Kcal/mole
 Xe     3.7933025034    -9.0875164747    40.9583662666
 Xe     2.8174439962    -7.2428354008    37.0692381673
 Xe     5.7373863216   -10.5591931261    37.2797415627
 Xe    -8.8920906705    30.0587713856   -33.0949743625
 Xe    -4.8409747177    31.5186142132   -34.0598585080
 Xe    -7.7045242131    30.6378952524   -37.3079393218
