          6
Energy: -3.0305711345111286 Kcal/mole
 Xe   -27.8347113636   -17.2482315184     0.6196228451
 Xe   -32.0869001712    31.8566993194    31.5679452468
 Xe   -30.3123191251   -15.4684715779     3.8231710989
 Xe   -35.4119803115    32.1632077701    34.4590172506
 Xe   -29.7966150205   -19.8348573065     3.6035192333
 Xe   -32.2267310773   -17.7357520752     0.5496373263
