          3
Energy: -0.7016971851195006 Kcal/mole
 Ar     5.1881117561     0.3635748157    -1.3878598930
 Ar     3.9932845705     3.7705538524    -0.1527404040
 Ar     6.5003855166     1.7625303240     1.9112108046
