          3
Energy: -0.7016955027873253 Kcal/mole
 Ar     4.0585283504    -3.3950412435     0.7692473052
 Ar     2.6645921974    -5.3274600172     3.7518554157
 Ar     1.4990705434    -6.1768038720     0.2186422308
