          3
Energy: -0.012910523626661853 Kcal/mole
 Ar    -4.5227716229    -4.9425403743    -3.6600923718
 Ar     3.9135792459     4.1997911173     2.4239082862
 Ar    -4.4822219596     1.9572789919    -4.9020719067
