          3
Energy: -0.7016964837303885 Kcal/mole
 Ar    -4.5922506792     1.1341956313     0.8317253221
 Ar    -2.9391619810     4.2179017227    -0.6946338554
 Ar    -6.0610545310     4.5972997330     1.4727822071
