          3
Energy: -0.701693905718159 Kcal/mole
 Ar    -5.4658703423     3.1285360884     5.4669976292
 Ar    -3.0305167329     1.3811565621     3.1019318121
 Ar    -3.4080423210     5.1801948500     2.9953742005
