          6
Energy: -0.013953479801141656 Kcal/mole
 Ne     2.8989886656    -3.0296265757     1.8873467536
 Ne    -2.3516422530    -4.5452360458     0.4282313400
 Ne     1.1791606888     1.8511909920    -4.2122205616
 Ne    -2.3601350832     3.6210709219     3.9427266875
 Ne     4.0648507081     2.6353446165     2.8132470501
 Ne    -4.5957487015    -1.6800976118    -4.9988767750
