          6
Energy: -0.8483715612265657 Kcal/mole
 Ne     1.3162974231    -1.1300872697    -0.1615770070
 Ne     2.8789840212    -2.5787184701     2.1858849251
 Ne     0.8076312795    -4.1271412587     0.4600886045
 Ne     3.5249805655    -3.2107770231    -0.8034897603
 Ne     2.0679221501     0.3869599519     2.4478700269
 Ne     4.3072539798    -0.4377031930     0.4110231009
