          6
Energy: -0.009458635790949507 Kcal/mole
 Ne    -6.8570370904    -4.8118301045     3.5163009315
 Ne    -6.7086570308     3.8635661032     7.4708248045
 Ne     4.2702316885     6.9264315583    -0.8189810399
 Ne     2.9677602657     3.3450792146     4.0771559089
 Ne    -0.1214284720     2.8066545547    -6.2423817561
 Ne     6.8881087262     7.3229884217    -5.3588026318
          6
Energy: -0.008573148200763825 Kcal/mole
 Ne     4.7713462730    -4.6482675096    -7.3448680455
 Ne    -7.3944613816     5.3693661595     1.5264582568
 Ne     4.9051713316    -5.6927636860    -2.0603933090
 Ne     4.0980893183    -5.9187434498     7.0900791846
 Ne     1.1715404780     3.3632778699    -0.3654339013
 Ne    -1.9684091064     3.5767431325     5.4436490806
          6
Energy: -0.11228105475442055 Kcal/mole
 Ne    -0.1448564373    -3.2149929767    -4.9900993700
 Ne    -1.2751364355     5.3953458346    -0.2634010799
 Ne    -3.6247163760     4.5927299244     3.9366979353
 Ne     5.9802781720    -2.1127070189     4.4281039071
 Ne     1.9755966181    -5.5769351569    -5.7427178906
 Ne     4.4540280979    -0.4437000036     1.3893394034
          6
Energy: -0.053939200594616696 Kcal/mole
 Ne     0.7580251578     3.4736300089    -0.1986405143
 Ne    -5.1332791642     0.5972484963     4.4688790451
 Ne     7.0465685005     2.8752332292    -0.8677362730
 Ne     0.1640257507     6.9226578909    -1.6407752883
 Ne    -0.7702140702    -1.6355927773    -3.5775307728
 Ne     1.6600611346    -4.6914641105    -0.9234458273
          6
Energy: -0.010226569602550523 Kcal/mole
 Ne    -3.9520976024     2.9002461459     7.4393303104
 Ne    -7.4620457764    -3.9494379228    -7.4193443072
 Ne     2.0205149942    -3.8683582077    -3.3608249491
 Ne    -6.3375398030    -4.2209882524    -2.1493969464
 Ne     7.1951016213    -4.7064616445    -5.9963662091
 Ne    -0.0578228567     2.1556965564     0.2508086655
          6
Energy: -0.1004332232733708 Kcal/mole
 Ne    -4.6412388803     2.6200979987     6.2154621755
 Ne     3.5590641343    -7.1353069220     6.4581653197
 Ne     4.1182457448     7.2230957971    -2.2546120417
 Ne     3.4796426673     5.9968475871    -7.2751861778
 Ne    -1.0910123042     4.9852791906    -7.2084585216
 Ne     0.7491565526     2.4226977925    -6.6133588818
          6
Energy: -0.05765566673758848 Kcal/mole
 Ne     7.1429241320    -5.2558142478     6.8018704979
 Ne     0.5503899793    -2.6664894965    -6.3183936625
 Ne    -2.3768124029    -4.7614437744    -2.1387998145
 Ne     2.5339471401    -6.3606004569    -3.5147387145
 Ne    -6.3824051232     6.9855434205     7.3543572970
 Ne    -4.8378379428     3.7897283490     6.2707928834
          6
Energy: -0.10005562003999463 Kcal/mole
 Ne     3.2075882708     3.6555800163     3.7164892429
 Ne    -2.1676664060    -5.4687757592    -3.7654639119
 Ne    -0.8795039159    -6.1467920530    -0.4801305214
 Ne    -1.4581490244     5.4376505428     5.8061670924
 Ne    -2.0305334493     6.9227473372     1.4488493439
 Ne    -5.0053914340     4.4155191680     1.1526915351
          6
Energy: -0.06681213470404304 Kcal/mole
 Ne     6.8409021757     6.7274065486    -1.8121846383
 Ne     6.5872479665    -4.1580578155    -0.0740092694
 Ne     0.6781367691    -3.1381667778    -1.0963715181
 Ne     3.3703311397    -4.2726700995    -6.2447487475
 Ne     6.7227844794     3.9038879300    -2.6788516647
 Ne    -4.2744997470     2.8200250189    -4.1407104102
          6
Energy: -0.8486241742229006 Kcal/mole
 Ne     3.0570811329     0.5312585616    -4.6523663400
 Ne     2.2547287565    -0.8590338269    -1.9900216723
 Ne     0.8215233518    -3.5172690796    -2.6387818645
 Ne     3.1536369383    -2.5657473536    -4.4542264077
 Ne     0.6408858861     1.5886516872    -2.9960229438
 Ne     0.4072894464    -1.0879435175    -4.5257404520
