          6
Energy: -0.009251213688296338 Kcal/mole
 Ne     2.9240041956     6.5057666587    -0.5846449115
 Ne    -4.4589309838     4.7019140780     0.7558129249
 Ne     4.2861038139    -4.3281405906     2.4014350537
 Ne    -7.1077247027     3.7510731841     6.4943586587
 Ne    -7.2176366502    -1.4575855196     5.6336559164
 Ne     4.8702540399     0.5200606933    -6.4669330928
          6
Energy: -0.01748777332962817 Kcal/mole
 Ne    -1.8614299159    -4.8402063465    -7.0560710397
 Ne    -4.8262667001     4.7637869674    -4.9433739078
 Ne     2.4659365886    -0.8877758386     4.5387038521
 Ne    -1.6843806626     3.9116208963     7.3466389626
 Ne    -6.1528679105    -6.2948733988    -6.7237476234
 Ne     1.2711339038     4.1432166914    -3.3803409775
          6
Energy: -0.08315223212951811 Kcal/mole
 Ne     0.5291128992    -2.1923283804    -2.3608529199
 Ne     7.4458994037     2.1354408657    -5.7823289928
 Ne    -2.7732337057    -3.4928846496    -2.1189324927
 Ne    -7.4373303398    -1.7386082981     1.6594373837
 Ne    -2.9107631165    -2.4524798524     6.7068809026
 Ne    -1.3829534166    -0.4114720504    -5.6639652782
          6
Energy: -0.038791871463648965 Kcal/mole
 Ne     5.7197490434     0.7222021175     0.7822189697
 Ne     2.3408973835     4.6384318596     7.1586732469
 Ne     3.3421103314    -5.8870988150     3.5192063774
 Ne     6.8261913747    -7.2830078908     5.0424242446
 Ne     0.4024022639     5.7663150698    -3.6025362739
 Ne     0.9627714460    -0.8281854698     2.0238579763
          6
Energy: -0.16096940178312433 Kcal/mole
 Ne    -0.7481803464     2.7959449137    -0.1865317513
 Ne    -4.5872834845     4.7112483953    -4.9975355327
 Ne    -1.7085187859    -5.9206742356    -0.4502027638
 Ne    -1.8045169040     6.4574756515    -6.8636958003
 Ne    -3.1415878613     0.0911834411     0.1057129296
 Ne     0.2128325632     2.5329189395     2.6346478885
          6
Energy: -0.07755816975687646 Kcal/mole
 Ne     6.7273277392    -0.0105923884     3.4448358163
 Ne     4.1483303876    -1.6793935254    -2.0398552046
 Ne     7.2467231996    -2.7973083348     2.2191791388
 Ne     0.9960118103     5.0002960581    -2.4329289689
 Ne    -3.8280968557    -6.2938849792     6.7683387515
 Ne    -4.4137251456     7.4656749210     2.9260846994
          6
Energy: -0.03258183366574579 Kcal/mole
 Ne     0.0911293345     4.8903179014     6.5284538360
 Ne     0.8098398376     6.9367066901    -6.8634944339
 Ne    -4.6878112218     5.2708691711     3.3005836357
 Ne     1.3747423262    -3.0521676669     1.9419823642
 Ne    -5.7428700086    -5.2769902987     7.4997994661
 Ne    -7.2151826717     6.2850700883     0.3939527913
          6
Energy: -0.09411920698044819 Kcal/mole
 Ne    -5.5408667538    -4.1905185437     6.8003040646
 Ne    -5.6282634975    -1.2208867318     7.4975088248
 Ne    -2.3233852282     3.1053809484     3.8374136970
 Ne    -0.0150044170     6.8885648478     4.2760455507
 Ne    -1.1550580977    -4.5178609336    -1.0361082718
 Ne     1.2265567866     0.0536574362     6.2416021871
          6
Energy: -0.5672446157685023 Kcal/mole
 Ne    -0.6388267791    -0.9261106622     0.1758482661
 Ne     0.0320798230    -4.3172762994     2.5548534579
 Ne     1.3766507113    -3.3128429979     0.1687752620
 Ne     2.3064464879    -1.8851436624     3.0379502447
 Ne     2.8226992022     1.1629716730     2.0183966145
 Ne     4.1761253792    -1.8402659362     0.7396741376
          6
Energy: -0.8483997270395235 Kcal/mole
 Ne     0.5923628155    -0.5919288083     0.4620054181
 Ne    -0.8897427312    -2.7749739986     2.0809604451
 Ne     1.4923432623    -3.5565059064     0.2226103980
 Ne     1.9999524646    -2.0033319911     2.8761247452
 Ne     2.6847826964     0.9391646062     2.2093148654
 Ne     3.6340811461    -1.3089152007     0.2966779158
