          4
Energy: -0.11999043409594645 Kcal/mole
 He    -1.6729998362    -7.0064180717    -4.2200638588
 He    -4.2492088098    -6.7192324662    -5.4459662638
 He    -3.5719461966    -5.1706655697    -3.1221141458
 He    -2.3263334208    -4.5979985150    -5.6397183517
