          4
Energy: -0.11995168541325917 Kcal/mole
 He     1.5187559312     6.4924580344     0.6399336008
 He     2.6650701673     3.8685999578     0.7134565501
 He     1.2306447044     4.7471234759    -1.6290103740
 He     3.7800294471     5.8927516808    -0.9957798575
