          4
Energy: -0.11998294752242641 Kcal/mole
 He    -1.2441049124     1.8861726870     3.9978974238
 He     0.3308434569    -0.4990344973     4.1360415522
 He    -1.6047180487    -0.1761165062     2.0387519719
 He     0.7864520478     1.4151233588     2.0382643757
