          4
Energy: -2.505376494559204E-4 Kcal/mole
 He    -4.0843267870     1.9052721190    -4.3807815723
 He    -2.3707678509     0.2699795913     2.7759477855
 He    -4.8459405528    -6.2096504480    -6.1981786272
 He     4.7082162028    -4.0444164742    -3.5886141062
          4
Energy: -0.0018346551619768433 Kcal/mole
 He    -1.3607523844    -4.4262124437    -1.4559816510
 He     3.4209051967    -1.4389098479    -3.2247959987
 He    -1.3353573179     6.4039428603     3.8839010655
 He    -6.0422075646    -3.9655821857    -3.3883100951
          4
Energy: 0.05673553783759927 Kcal/mole
 He     5.4684666814     2.6351073620    -4.4443992137
 He    -6.5353512988     2.2462300848     4.7362268557
 He    -1.1951178850    -5.4453361871     1.2488261221
 He     1.0633275473    -5.5274152014     0.4577376433
          4
Energy: -2.497254775260841E-4 Kcal/mole
 He    -2.4020962314    -6.2888630579     6.7523892398
 He    -5.2692770213    -0.0879084328    -2.6483540182
 He     2.5158676059    -3.6964009260     2.6908601991
 He     6.1942517413     6.5893194001     7.2215975360
          4
Energy: -0.00828740320682352 Kcal/mole
 He     1.3524208649    -6.5541028856    -5.2078364812
 He     1.9095214383    -2.2279913701    -5.5334011466
 He    -1.7328411381     6.9217458013    -3.1577270701
 He    -1.5602968527    -0.5858301982    -4.2948160416
          4
Energy: -0.0012108384506863403 Kcal/mole
 He     0.8662133863     5.5586494799     2.4580264853
 He     1.5491017242    -4.9531189817     2.3370959539
 He    -0.9935554940    -0.5714946812     4.3710918301
 He    -6.9393626509     6.2273283974     0.6766035667
          4
Energy: -7.750225302017696E-4 Kcal/mole
 He     0.7586041981    -0.6162522687     7.2679906340
 He     6.8983631199     5.8988475451     4.4658723840
 He     7.4969246013     3.0873435933    -0.3596444517
 He    -1.5021587587    -1.3332792288    -4.4240780450
          4
Energy: -8.724730713057972E-4 Kcal/mole
 He     0.6360606418    -0.6883368507    -2.1455825037
 He     6.2060099608    -6.6783624589     1.1487865700
 He     1.7391631972    -2.3031521771     3.4566838421
 He     3.7863062338     6.7195086579    -5.1020807831
          4
Energy: -6.918804175189963E-4 Kcal/mole
 He    -2.2285103055    -0.4933221601     5.7597963081
 He     5.4626715589     4.6760335143     0.6628873856
 He    -0.7109242994     4.4295534267     0.1412130566
 He     6.0855444283     6.3399692693    -6.4523438084
          4
Energy: -0.11995168541325917 Kcal/mole
 He     1.5187559312     6.4924580344     0.6399336008
 He     2.6650701673     3.8685999578     0.7134565501
 He     1.2306447044     4.7471234759    -1.6290103740
 He     3.7800294471     5.8927516808    -0.9957798575
