          4
Energy: -0.1199635410313267 Kcal/mole
 He     2.0262417841     1.4711198979    -6.0555988620
 He     3.5356898912     2.1047210233    -3.7017855156
 He     3.0397028503    -0.6419039468    -4.3888887047
 He     0.9005289181     1.0241391246    -3.4372544979
