          4
Energy: -0.0013549276360292767 Kcal/mole
 He     2.7200042211    -2.6316150660     1.0960566262
 He     7.3955848425    -6.8849539320     5.1768085709
 He     4.6671744531     2.5568676248     3.8211784445
 He     1.6021486090    -4.8789779453    -3.8169755413
          4
Energy: -0.001154652935322565 Kcal/mole
 He     5.6916106939    -1.9805233345    -0.9840152825
 He    -0.1804317132     3.4438050759     7.1439556541
 He     3.4212875867    -2.3192785255     5.0309548438
 He    -3.1559727890     6.3366575535     3.2335296063
          4
Energy: -8.102430253031612E-4 Kcal/mole
 He    -2.0826672574    -5.2291679114    -4.8201818412
 He     4.5042687174     5.6982642055     2.5473012298
 He     5.5285994107     3.3665253028    -2.3584356387
 He     5.8176924808    -7.2914279686     2.6478827590
          4
Energy: -8.787568176838942E-4 Kcal/mole
 He    -2.8574396913    -2.9267189451     6.3650861027
 He    -5.5249033456     3.9094032179     7.0267475936
 He     5.3150590799    -3.3187555398     3.7317665364
 He    -0.4164300875     6.2086169139     5.9256043543
          4
Energy: -0.04035538093203947 Kcal/mole
 He     1.0707578806     6.9000685042     0.4337306384
 He     4.7402142106     3.2749487005     4.0169521687
 He     6.7998868282     1.4189384984     2.6614607581
 He     4.2380936912     0.2032521076     4.9870023771
          4
Energy: -0.0034575049142249524 Kcal/mole
 He    -6.5059701876    -2.5659703713     4.3925333198
 He     3.5536517094    -0.8939616472     1.6195998615
 He     0.0588684266    -5.8086716578     6.9835150136
 He    -3.3753873387    -3.9761832394     1.6099661464
          4
Energy: -7.252473203768405E-5 Kcal/mole
 He     5.8552111706     0.2233244315    -2.4698235049
 He    -0.9941822315    -6.5827628897    -0.6059445027
 He    -3.1631242934     5.0988510857    -5.5474526495
 He    -0.9694861368     5.8323535456     4.8921816068
          4
Energy: -5.156668991100817E-4 Kcal/mole
 He    -1.0460837264    -7.2753963655    -1.3096017936
 He    -4.0012041398     3.8627625176     1.0799798921
 He    -3.8964831591    -7.3145450590     3.9527140846
 He     7.1804686868    -3.8432736419     7.3025745772
          4
Energy: -1.3690969096754582E-4 Kcal/mole
 He    -5.4614223994    -1.4480270372     7.1376982937
 He     1.7175509250    -1.0708043141     4.5446102777
 He    -6.9437001420     6.9929235727    -0.3764550390
 He     5.2573010852     5.5059372132    -5.6939344208
          4
Energy: -0.11998294752242641 Kcal/mole
 He    -1.2441049124     1.8861726870     3.9978974238
 He     0.3308434569    -0.4990344973     4.1360415522
 He    -1.6047180487    -0.1761165062     2.0387519719
 He     0.7864520478     1.4151233588     2.0382643757
