          4
Energy: -0.003510993885855008 Kcal/mole
 He     1.2142696927     1.7193408334    -1.6433145647
 He    -3.4612582891     1.1195750904     0.4820708620
 He     1.1051568700     0.0869860148     3.4757380529
 He     4.1037342303    -3.5146674871    -1.8537922945
