          4
Energy: -5.832345622647665 Kcal/mole
 H     -3.2912899622    -2.7250239838    -2.5314975072
 F     -2.7992528626    -2.0442826925    -2.8994374302
 H     -2.7433564587    -0.8976147623    -1.6493550381
 F     -2.8466269969    -0.4482338314    -0.8567132685
