          4
Energy: -5.831201215759222 Kcal/mole
 H     -2.3626290467     1.2211432351    -1.4418286764
 F     -2.0090912624     0.7447451856    -2.1410746513
 H     -1.4594794650     1.9614398596    -3.1809068217
 F     -1.2509674938     2.7659740336    -3.5683813637
