          4
Energy: -5.831270597503362 Kcal/mole
 H     -2.5829218236     1.4536159472     0.5670879984
 F     -3.0272124907     1.2512684995    -0.2091531455
 H     -3.1030409303     2.7443716398    -1.0353084951
 F     -3.0262916598     3.6236317322    -1.2841060823
