          4
Energy: -5.80731701667122 Kcal/mole
 H     -1.3630365302     0.6926534041    -2.0043382727
 F     -1.9331095251     0.1384642241    -2.4612629200
 H     -2.8802598101     1.2632586062    -3.3164706594
 F     -3.2315079394     2.0136428259    -3.7094557412
          4
Energy: -5.799170742871411 Kcal/mole
 H     -2.8268897283     1.0869122047    -2.0024576110
 F     -1.9853676577     1.0578560801    -2.3656178323
 H     -1.6678871786     2.5484959764    -3.0925998561
 F     -1.6374798056     3.4014310958    -3.4279594745
          4
Energy: -5.759858973077314 Kcal/mole
 H     -2.2487093229    -0.0187531503    -2.5975252051
 F     -1.8335149177     0.4104816110    -3.2934132174
 H     -0.8819181878     1.7006979554    -2.7114052538
 F     -0.3733942441     2.2858596392    -2.2216316301
          4
Energy: -5.8007556407469565 Kcal/mole
 H     -2.9064965952     1.6112383755    -2.2257043193
 F     -2.2736295377     1.0678294091    -2.6065914192
 H     -0.8229995121     1.9337175465    -2.5341811940
 F     -0.1422981242     2.5201123356    -2.3506715977
          4
Energy: -5.816145654227967 Kcal/mole
 H     -2.5560414249     1.4411285645    -2.1747114303
 F     -1.9085226881     0.9042486713    -2.5399079057
 H     -0.7779925669     2.0912128309    -2.9950826739
 F     -0.3796459503     2.9015342580    -3.1550456629
          4
Energy: -5.8223344684387826 Kcal/mole
 H     -2.5182688193     0.5048584903    -3.5167734633
 F     -2.0372284708     0.8480565990    -2.8155572048
 H     -1.7904048993     2.4930686070    -3.2371596844
 F     -1.8101815427     3.2961776364    -3.6793290765
          4
Energy: -5.803614259023277 Kcal/mole
 H     -1.2402163372     0.7158008553    -1.8843605758
 F     -2.1355393143     0.8171132392    -2.0547177522
 H     -2.1304512749     2.2140206873    -3.0632690855
 F     -1.8142129901     2.9425239598    -3.5217070085
          4
Energy: -5.824454847548395 Kcal/mole
 H     -1.4095171070     0.9381038904    -1.3864514355
 F     -2.0677370040     0.8695691054    -2.0212258446
 H     -1.7662335025     2.1949038048    -3.0346211919
 F     -1.4305153572     2.9352780071    -3.4589186907
          4
Energy: -5.821034184464224 Kcal/mole
 H     -2.3491038419     1.2405675374    -1.3796374355
 F     -2.0650600570     0.7536799551    -2.1029275644
 H     -1.4809841665     1.9676778613    -3.1802088124
 F     -1.2498267190     2.7656431220    -3.5684183915
          4
Energy: -5.831201215759222 Kcal/mole
 H     -2.3626290467     1.2211432351    -1.4418286764
 F     -2.0090912624     0.7447451856    -2.1410746513
 H     -1.4594794650     1.9614398596    -3.1809068217
 F     -1.2509674938     2.7659740336    -3.5683813637
