          4
Energy: 0.7798549784620832 Kcal/mole
 H      1.7905422733    -2.0164730655    -2.0061908585
 F      2.6849144264    -2.2189266449    -2.0061908585
 H      1.5368863978    -1.8751171921     2.0537591427
 F      2.4538863978    -1.8751171921     2.0537591427
