          4
Energy: -5.832123292158826 Kcal/mole
 H      1.9235202447     3.4707254203    -3.1200218788
 F      2.4813901465     3.1986149089    -2.4450211068
 H      2.4493711995     1.5089086999    -2.5832573171
 F      2.2798764261     0.6459398216    -2.8429595253
