          6
Energy: -5.325638091356046 Kcal/mole
 Xe    -7.3743339898   -17.1711772495    19.6252883667
 Xe    -4.6321741740   -20.5138997349    20.4930310947
 Xe    -7.7578434088   -19.3986109863    23.3962150964
 Xe    -6.8368495903   -23.6498803607    22.6220693901
 Xe    -6.2365173792   -20.0084250690    16.4393989197
 Xe    -8.9664464459   -21.2854674898    19.6137895365
