          6
Energy: -2.597976700950913 Kcal/mole
 Xe   -21.3723453355    20.1773737793   -16.0364945498
 Xe     6.0560263597   -17.4651631375   -18.1400767667
 Xe   -19.9561536573    18.0966091092   -19.6646277619
 Xe   -17.5928512651    17.8945909849   -15.9355394845
 Xe     6.9891982558   -21.0343284590   -20.5641678636
 Xe     3.4032151453   -18.6303242192   -21.4745830965
