          6
Energy: -0.003191685241291413 Kcal/mole
 Xe     9.2647795536    21.0290698729     3.9587571255
 Xe   -19.3590692235    -7.7839364882   -18.5782985331
 Xe    14.8948480381    10.0463680431   -11.9481632277
 Xe    -3.6072908887    12.9907785483    -0.2357885185
 Xe   -22.5850190839    21.2087009565    20.9406016734
 Xe   -19.5927620938   -14.1065270742    -8.8141965515
          6
Energy: -6.08033256142396E-4 Kcal/mole
 Xe    -4.6501309764     9.2066685320    18.6419241368
 Xe   -20.5495311126   -24.2659927846   -16.7373094614
 Xe    13.4364618228    17.5963178700    21.8398503019
 Xe   -24.7448762519    -5.3007536439     0.6455947506
 Xe     3.9140575455   -17.1767763865     4.6015621970
 Xe    -8.2021800183    -5.7905399951    -3.4382268129
          6
Energy: -0.04723279146107408 Kcal/mole
 Xe     2.6827031508    -5.4895828754     3.8973792838
 Xe    -6.1687015029   -24.5963127950    -8.4464963075
 Xe   -15.5582126490   -14.1532696865    13.7352975107
 Xe   -16.3329747461   -10.3280169601     7.7493227944
 Xe    16.1508362324     6.4468967527    22.5648636562
 Xe   -14.6566443634    15.8659800271    -4.1469227569
          6
Energy: -0.2384808807902629 Kcal/mole
 Xe    16.7198888703    -1.8134050930    -6.3467862663
 Xe     2.2579408225     1.2415838812    -7.1448776915
 Xe     2.6364267917     1.9852787823   -18.1971957986
 Xe    20.8626803817    -9.2407427907    25.9196587141
 Xe    23.6300997197    -5.0309428613    24.1672667558
 Xe   -14.6118108758     4.7497063681     6.7530125673
          6
Energy: -5.890070246565134E-4 Kcal/mole
 Xe    22.7340124920    -5.4924929171    -8.9110241744
 Xe    15.3451371585   -23.6668926868   -22.5995766262
 Xe     3.8147142763   -24.7886145541     7.0733650991
 Xe    16.0296618909    21.8071005408    15.7074524984
 Xe    17.6780416718   -19.4401662864    10.8858722854
 Xe   -12.7150099615     3.7481200795    13.0639065842
          6
Energy: -0.41118972954455546 Kcal/mole
 Xe    -5.6831261642    13.2820479121    -2.0113218098
 Xe    -4.6438867992     9.4639921633    -4.3815339330
 Xe     6.3680723237    23.1955448416    -9.2388536075
 Xe    -3.5431462205    24.5895077277   -23.9895566636
 Xe    23.8894608096   -12.5304352247     9.4852435061
 Xe    21.3673047764   -22.7273891773    -4.7510524232
          6
Energy: -0.00690107964707038 Kcal/mole
 Xe     3.4842910448     6.2751765774    -9.7453964163
 Xe    22.6261101156   -17.8983774122    -9.0102998113
 Xe    12.8760019706     6.4470378795     9.9602914151
 Xe    -5.3216195850     9.6427118577    -4.2647668218
 Xe    18.4609355816     0.0542500410     2.1473562801
 Xe     1.5095657465   -24.5916504872    -4.4889085143
          6
Energy: -1.1440918973086887 Kcal/mole
 Xe   -25.7987039072    -3.0164439613   -10.2553789874
 Xe    15.4915687444   -21.7004299115     7.2468994381
 Xe    -9.1384323854     9.5334803536    18.6049556657
 Xe   -22.9809483991     0.8402745276    -9.8420296844
 Xe    15.4265669609   -15.6663166478    11.9183192926
 Xe    14.7509874590   -16.8713642777     7.4767212359
          6
Energy: -1.6989165426793498 Kcal/mole
 Xe   -20.9687509155     9.2703213592   -12.1606607543
 Xe    15.9660519730   -18.2035719803    13.6114390700
 Xe    -5.9664511449    15.8051610341     9.4104611974
 Xe   -17.7640187048     6.8888571518   -13.9808710960
 Xe    13.1780069587   -17.5144425644    10.2618661818
 Xe    15.6354150737   -21.4539928566    10.5897160891
          6
Energy: -2.5979624580837535 Kcal/mole
 Xe   -19.4525680065    10.7732967112   -11.6811558285
 Xe    15.3692904833   -18.4972159908    13.7352931537
 Xe   -15.4033847508    12.4591074166   -11.1443888476
 Xe   -15.9151346182     8.1219257309   -11.8091723982
 Xe    13.8634571108   -17.1340199062     9.8108549138
 Xe    15.7215949337   -21.1254273617    10.2013004362
