          32
Energy: -131.72821308225207 Kcal/mole
 H     -1.2496777501     0.6605641432     1.8460238589
 F     -1.4839730136     1.0631852081     1.0561561437
 H     -0.7753518045    -2.6566904083     0.2738435098
 F     -1.1976052756    -1.9196420933     0.6193153428
 H      0.4830400377    -3.4671799345    -1.3289458930
 F      0.0754456365    -3.7829465236    -0.5706271834
 H     -0.3634778041     4.3230380380    -0.4595897450
 F      0.0439126288     4.6387514428    -1.2180401925
 H     -1.5446831742     1.1389737890    -1.5918908326
 F     -1.5823609226     2.0373056695    -1.7720830072
 H      1.4758655443     1.7707300007    -1.1012313238
 F      1.4235768412     1.3550133382    -0.2855509035
 H     -1.3578739871    -0.9147836108    -0.6890649169
 F     -1.3052623519    -0.4983659971    -1.5043669388
 H      1.5295483746    -1.4974931881     1.6122447448
 F      1.3355851866    -1.5522962981     2.5068194487
 H     -1.4127469828     2.3541514677    -3.4008641680
 F     -1.2190131472     2.4087946622    -4.2954983515
 H      0.0355767575    -0.6509646957     3.0267261928
 F     -0.6446981928    -0.0583427300     3.1907816645
 H     -1.1893179615     2.7134676471     0.9308118675
 F     -0.9850983864     3.6070704969     0.9051737734
 H      0.0801036556     1.5062973744    -4.8155307636
 F      0.7598428724     0.9131166957    -4.9797875119
 H      1.3082047729    -1.8573507653    -2.7196465666
 F      1.1045987033    -2.7510832217    -2.6936491665
 H      0.8931797288     3.5123080372    -2.0638951876
 F      1.3146819009     2.7750932263    -2.4099287720
 H      1.3666501193     0.1951927325    -3.6353337766
 F      1.6020926417    -0.2070494897    -2.8456141977
 H      1.6621565229    -0.2822598062    -0.1969653371
 F      1.6994905898    -1.1805583029    -0.0165353557
