          14
Energy: -54.079235820870394 Kcal/mole
 H     -2.3445885614    -4.0006587499    -1.7233813409
 F     -3.0236440185    -3.9377690550    -2.3364209581
 H     -1.3482785079    -4.8682090660     0.0848915062
 F     -1.2630443919    -4.1445351611    -0.4718132854
 H     -3.8907643536    -5.1443697657     2.9515995813
 F     -3.0583875596    -5.4542491376     3.1796623966
 H     -2.1484528033    -5.9469178026     1.8888217591
 F     -1.7124007609    -6.1268757981     1.1024613226
 H     -5.3501413601    -2.5198890777    -0.0506205845
 F     -5.3226020100    -2.4273683687     0.8612842914
 H     -5.3559691648    -3.7725535102     1.8275622675
 F     -5.2990994890    -4.5541456359     2.3037645239
 H     -4.4754327744    -3.2274075450    -1.9842750882
 F     -5.2486509598    -2.8485117865    -1.6689012752
