          2
Energy: -0.0199999999885802 Kcal/mole
 He    -5.2367205143    -4.7174037237     1.9984286533
 He    -5.0664639419    -2.1985059312     0.6355841269
