          2
Energy: -0.019999999996434585 Kcal/mole
 He    -0.1827053785     0.7826838853    -6.2634648596
 He     0.1126726865     2.6670317790    -4.1202809178
