          2
Energy: -0.0050481228233274075 Kcal/mole
 He    -2.8918327591     5.5066781741    -6.9952379647
 He    -0.4921519165     2.3100573455    -6.7623526290
          2
Energy: -9.300246320414315E-7 Kcal/mole
 He    -2.8372029968    -7.2383356820     2.2393658770
 He    -2.7298791569     6.7127409515    -7.4430543257
          2
Energy: -1.0651256079611258E-5 Kcal/mole
 He    -3.3257836215    -0.3927225829    -1.6433252108
 He     6.5093583588    -5.5640049001     0.4698715795
          2
Energy: -2.790281949743924E-6 Kcal/mole
 He    -4.0496318919    -5.3391954442    -5.7481262745
 He     1.1261906633     3.8587701500     3.6626403619
          2
Energy: -3.2798531130983835E-6 Kcal/mole
 He     0.6457270749    -4.5695433490    -1.8197120453
 He    -7.0113834289     5.7805792247     3.0493767083
          2
Energy: -5.8393334038063325E-5 Kcal/mole
 He     2.7593007509     3.0384076293     1.7043174549
 He     0.1765635654     4.8589279587    -6.2050126241
          2
Energy: -2.61847412489518E-6 Kcal/mole
 He     1.6857291072    -2.9092214322    -4.3116536192
 He     4.8339698961     5.8541887960     6.5293124812
          2
Energy: -1.6297965536009157E-5 Kcal/mole
 He     5.1898278742     2.9617218149    -3.5890043729
 He    -4.0784544464    -1.9475995401    -4.5989656580
          2
Energy: -0.012948174981506282 Kcal/mole
 He    -2.9856517641     3.6610705954     7.4706014369
 He    -5.3326454763     5.6471647254     6.1816597325
          2
Energy: -0.019999999988787053 Kcal/mole
 He    -3.1784110915     4.0823311429     7.2925283999
 He    -5.2948213916     5.6310098769     6.1290934423
