          2
Energy: -1.7699750976166697E-5 Kcal/mole
 He    -0.7528291249     4.8919950203    -3.7083618172
 He     2.0595754284    -4.9333792642    -1.8209314365
