          2
Energy: -0.019027978800871953 Kcal/mole
 He    -2.1592348522     4.6192035421    -2.4611784566
 He    -4.7972481935     5.1297674908    -1.7665000587
          2
Energy: -8.076062599059314E-6 Kcal/mole
 He    -7.2318653475    -6.7893390900    -5.5293448224
 He    -6.9298405212     5.0389916545    -4.9784150852
          2
Energy: -0.0049992287316903816 Kcal/mole
 He    -1.3511028381    -2.9078733935    -3.0456221649
 He     0.6261581785    -2.5369268073    -6.5155039877
          2
Energy: -6.707762456651065E-6 Kcal/mole
 He     7.1333376619    -3.0874575985     3.1531286578
 He    -0.1432827168     1.0562789225    -5.7430203336
          2
Energy: -1.578289587966617E-5 Kcal/mole
 He    -1.2937112166     2.9982885739    -2.5515420589
 He    -5.8811183771    -6.5492447010    -2.6852696789
          2
Energy: -2.402598614952627E-5 Kcal/mole
 He     1.4946074179    -4.7976051850    -4.6700610909
 He     0.4630924247     4.7674632605    -2.4356565154
          2
Energy: -1.7967657235951547E-6 Kcal/mole
 He    -5.0636392343    -6.7474127219     4.3029778994
 He     5.4177117147    -0.5944111541    -4.8531852177
          2
Energy: -8.488734484210606E-7 Kcal/mole
 He    -2.7315722746     5.9869174872     5.6017177816
 He     3.4713665242    -5.6404551675    -5.5173180444
          2
Energy: -2.1797371083254194E-5 Kcal/mole
 He    -5.5490882257    -5.6175154611     3.1385992599
 He    -4.9505841329     1.2022619940    -4.2029057517
          2
Energy: -0.0199999999885802 Kcal/mole
 He    -5.2367205143    -4.7174037237     1.9984286533
 He    -5.0664639419    -2.1985059312     0.6355841269
