          2
Energy: -0.019999999988787053 Kcal/mole
 He    -3.1784110915     4.0823311429     7.2925283999
 He    -5.2948213916     5.6310098769     6.1290934423
