          2
Energy: -3.893717132364784E-5 Kcal/mole
 He    -3.8636749689    -6.3026384167    -1.0722256507
 He     1.7833045941    -0.9253630795    -5.7879041500
          2
Energy: -1.5311956904224396E-5 Kcal/mole
 He    -0.6790471988     4.6481069210     1.5253175233
 He    -6.6217110987    -3.3318597485    -2.2643457476
          2
Energy: -1.5377470777609017E-5 Kcal/mole
 He     0.4857695784     2.0815877327    -2.9196035023
 He    -1.9657016885    -2.5149544415     6.3571156234
          2
Energy: -1.2631279446410187E-5 Kcal/mole
 He    -4.7817976659     2.1621439975     2.1690749242
 He    -1.4183754379    -2.0689145277    -7.4045352627
          2
Energy: -2.1362327650830638E-5 Kcal/mole
 He    -5.3317578357    -2.5103577885     5.2945380490
 He     3.9124105689     0.9808749634     3.3447862683
          2
Energy: -4.603185161056311E-5 Kcal/mole
 He    -3.6412057287    -6.5828234764     0.0620875423
 He    -5.9476261331     1.0222289443    -3.8591364819
          2
Energy: -0.0012378185698415725 Kcal/mole
 He    -1.3001248003     0.4776123589     4.2192288343
 He     0.3656285983     2.7591409186    -0.0351540937
          2
Energy: -0.006363043273063379 Kcal/mole
 He    -3.4772444304    -3.6505267477     3.4890004498
 He    -0.4095262875    -4.0095206435     5.7686743178
          2
Energy: -5.372612455722291E-6 Kcal/mole
 He    -5.0614653378     6.5719930639     2.0691667308
 He    -5.8343959581    -5.7575849817    -0.7782640080
          2
Energy: -0.019999999991774473 Kcal/mole
 He    -5.7610349821    -0.4749133833     0.1090890044
 He    -5.2718715920    -0.7728331362     2.9203598519
