          2
Energy: -0.019999999991774473 Kcal/mole
 He    -5.7610349821    -0.4749133833     0.1090890044
 He    -5.2718715920    -0.7728331362     2.9203598519
