          8
Energy: -26.612483352066675 Kcal/mole
 H     -0.0395143678     1.2220465033     0.9262526028
 F      0.1845254348     0.9739029046     0.0723674107
 H      0.3135805792    -1.4444253768     1.9414522663
 F      0.1479316410    -1.1833815586     2.8047630760
 H     -0.1807260438     0.5034557617     2.8122615784
 F     -0.3758855200     1.3521855154     2.5251038098
 H      0.4544069436    -0.7153502983     0.0189713473
 F      0.4964286295    -1.5948884515     0.2749709860
          8
Energy: -26.757560179009317 Kcal/mole
 H     -0.5014729112     1.0315414813     0.8791648569
 F     -0.3563303838     0.7239561422     0.0275699380
 H      0.1391160620    -1.5594342298     2.2203398863
 F     -0.0896642702    -1.2257355547     3.0432577156
 H     -0.5649441042     0.3736071276     2.8205525729
 F     -0.7558462874     1.2101585487     2.4970914835
 H      0.2019172324    -0.8467483198     0.2374979452
 F      0.4213990059    -1.6714588179     0.5730114999
          8
Energy: -26.701001114365624 Kcal/mole
 H     -0.2151771601     1.0916785421     0.9435849922
 F      0.0628181042     0.7806356098     0.1269700723
 H      0.1948506129    -1.5057358622     2.3533214917
 F      0.1148003767    -1.1707630658     3.2031886492
 H     -0.4093066564     0.3529067925     2.8792411281
 F     -0.6226758671     1.1812692255     2.5488197916
 H      0.2751361741    -0.8556975120     0.3516479451
 F      0.3481852796    -1.6963738694     0.7105575303
          8
Energy: -26.77826022217502 Kcal/mole
 H     -0.3749712592     1.1363423541     0.8943904354
 F     -0.1897126174     0.8557409771     0.0412602561
 H      0.1977267737    -1.4581082867     2.2227461073
 F      0.0502268029    -1.1685696087     3.0802425286
 H     -0.4039198961     0.4103100761     2.9048455325
 F     -0.6251980518     1.2307162144     2.5600865645
 H      0.1850041892    -0.7787782404     0.2696595408
 F      0.3603734773    -1.6172666699     0.5968777652
          8
Energy: -26.73852023564578 Kcal/mole
 H     -0.5137752517     1.1071396005     0.7518014405
 F     -0.3717631183     0.7801816417    -0.0930772769
 H      0.3118835508    -1.4351394404     2.1814018378
 F      0.1267457020    -1.1090124529     3.0182137432
 H     -0.3433992250     0.5308517389     2.7795767826
 F     -0.6239520816     1.3158548173     2.3975437191
 H      0.2028540945    -0.7706639831     0.1279126330
 F      0.4717446517    -1.5700423129     0.4878864571
          8
Energy: -26.748830666813717 Kcal/mole
 H     -0.6406738990     1.1367474537     0.7147620238
 F     -0.4457142410     0.8040347045    -0.1172127104
 H      0.3586343489    -1.3409741970     2.1603773091
 F      0.0712135655    -1.0753760719     2.9896757651
 H     -0.5498125008     0.4436715760     2.7472634370
 F     -0.8521216447     1.2423363498     2.4131485456
 H      0.3066853770    -0.6760555277     0.1894976679
 F      0.6704210287    -1.4368976963     0.5496428747
          8
Energy: -26.84174690725436 Kcal/mole
 H     -0.7483947269     1.0484861368     0.7378514476
 F     -0.4976873929     0.7516840768    -0.0927768507
 H      0.2379403231    -1.3638851297     2.1749419784
 F      0.0843764626    -1.0415666907     3.0195827094
 H     -0.6569991756     0.4239184369     2.7498521270
 F     -1.0175013235     1.1832033838     2.3832275632
 H      0.0933383615    -0.7921953957     0.1475751262
 F      0.3897838544    -1.5775372873     0.5166918870
          8
Energy: -26.836116285174967 Kcal/mole
 H     -0.7337679502     1.0436149772     0.7312467500
 F     -0.5483321770     0.7164739117    -0.1051032350
 H      0.2526145029    -1.3891006451     2.1878669535
 F      0.0835980313    -1.0402290659     3.0188970694
 H     -0.6120160369     0.4590110392     2.7304966804
 F     -0.9436752116     1.2318030946     2.3648689585
 H      0.0923018163    -0.8179928486     0.1480450352
 F      0.4005277059    -1.5957750558     0.5234656516
          8
Energy: -26.84771307315856 Kcal/mole
 H     -0.7282426092     1.0449358669     0.7319345439
 F     -0.5486252835     0.7164038416    -0.1051397209
 H      0.2557488001    -1.3686764722     2.1802376173
 F      0.0834317640    -1.0413125210     3.0193017880
 H     -0.5938577986     0.4793051509     2.7681204502
 F     -0.9382058654     1.2385289419     2.3861614943
 H      0.0852889538    -0.8175624219     0.1548282063
 F      0.4008997221    -1.5957978889     0.5231058200
          8
Energy: -26.85984475874207 Kcal/mole
 H     -0.7444605689     1.0334842564     0.7423818882
 F     -0.5505825483     0.7143243672    -0.0951366359
 H      0.2543741446    -1.3732625317     2.1817604135
 F      0.0835046863    -1.0410692412     3.0192210072
 H     -0.6011765583     0.4710199391     2.7579385705
 F     -0.9378176221     1.2389684533     2.3867016195
 H      0.0874266650    -0.8163802569     0.1555035123
 F      0.4007863214    -1.5958606000     0.5230699966
