          8
Energy: -26.85768275090905 Kcal/mole
 H     -0.0299636815     1.2254536112     0.7992314440
 F      0.4349896229     1.0567564910     0.0270600211
 H      0.2813984582    -1.5170014300     1.9082609068
 F     -0.1610329948    -1.3357178666     2.6907439283
 H     -0.6337817878     0.2661149455     2.5607996903
 F     -0.7798808859     1.1274971915     2.2822953279
 H      0.8693185702    -0.5546995100     0.1222323064
 F      0.9961472236    -1.4240232463     0.3850625447
