          8
Energy: -2.7685518000746754 Kcal/mole
 H      0.1836476162     0.3192734126     0.6894224603
 F      1.1006476162     0.3192734126     0.6894224603
 H      0.0863766045    -1.7874014062     2.8139704380
 F     -0.6972245455    -1.7874014062     2.3376740621
 H     -1.8909806870     2.1980996497     2.4837875813
 F     -0.9739806870     2.1980996497     2.4837875813
 H     -1.8170379852    -1.6357255101    -2.4653043181
 F     -1.4435660875    -2.4732264006    -2.4653043181
