          3
Energy: -0.7016995910710075 Kcal/mole
 Ar    -7.4020996129    -6.6826966592     0.5665241117
 Ar    -3.9994099619    -6.6206057844     2.2957523765
 Ar    -4.2372230279    -7.4698850266    -1.4189826683
