          3
Energy: -0.7016944386234831 Kcal/mole
 Ar    -3.9040281737    -5.8611076852     1.9632379526
 Ar    -2.4986764447    -3.9781547455    -1.0472921187
 Ar    -4.3337639222    -7.2860453101    -1.5550882982
