          3
Energy: -0.0011547651339179241 Kcal/mole
 Ar     7.1131520556    -1.0123024441     5.7017720172
 Ar    -6.0549431212    -7.4221219638     3.6443523806
 Ar    -2.6254320695     4.7508666558     5.6889025492
          3
Energy: -0.34082412578095467 Kcal/mole
 Ar    -3.4649317001     0.1408126478     7.3260205707
 Ar    -5.6425808209    -4.0399444177     4.1309750783
 Ar    -2.5971183888    -2.6926896362     5.0287111971
          3
Energy: -0.0019058848603132434 Kcal/mole
 Ar    -4.8329612394     3.2471557647     2.4332582812
 Ar    -7.2988810889    -4.9947944281    -2.2559727372
 Ar     7.2125885257    -0.9862034559    -4.4488825091
          3
Energy: -0.020909660144493 Kcal/mole
 Ar     7.1610311085    -5.0088174773     1.8844710385
 Ar    -0.8299302747    -3.4819415436    -0.3810403552
 Ar    -6.4436156825    -0.5521438106    -2.3302081601
          3
Energy: -0.01747309542967124 Kcal/mole
 Ar     1.9750520302     3.6447608233     1.3800224723
 Ar     4.8890623006     4.4661074452     7.2659501310
 Ar     2.8538298697    -6.0122733743    -5.5554179527
          3
Energy: -0.02645479566452744 Kcal/mole
 Ar    -1.2530231099    -3.4367572635     7.3889329280
 Ar     5.9856322428     0.7705899645    -3.1411306726
 Ar     0.3769725350     1.0087627755    -5.6515138162
          3
Energy: -0.0034519065676241875 Kcal/mole
 Ar     4.1708882713    -5.1915956403    -5.0763257848
 Ar    -1.8010650795     6.0252298416    -5.7671657418
 Ar    -2.7175346935    -7.4702525365     0.0216948504
          3
Energy: -0.6332072241996032 Kcal/mole
 Ar     4.5027343444     2.3145453822     6.5507641575
 Ar     3.6596207554    -1.5290905881     4.9897715742
 Ar     0.9879729375     1.4789126812     5.2333207854
          3
Energy: -0.6807640608254191 Kcal/mole
 Ar     2.6821012087    -4.5939390463     6.2742842181
 Ar     5.7638776215    -7.0596439446     6.1779915749
 Ar     6.4459538084    -3.2998814699     5.9527507441
          3
Energy: -0.7016980504001943 Kcal/mole
 Ar     2.8627104650    -4.4847295324     6.3748645865
 Ar     5.6802770834    -7.0478528787     6.1372866995
 Ar     6.4455060829    -3.3284098359     5.7361262078
