          3
Energy: -0.03491704144060547 Kcal/mole
 Ar     0.0991091786     1.7563660815     0.3903681088
 Ar     6.1395715426     1.6070636123    -5.4964549566
 Ar    -2.0095733107     7.0760294105    -1.4242097204
          3
Energy: -0.01754158680774842 Kcal/mole
 Ar    -4.1221704810    -7.3677207626     1.1649399982
 Ar     1.3058883038    -0.7594525436    -0.4794789035
 Ar    -6.6247336888    -1.3572451573    -2.1947979322
          3
Energy: -0.36261003911891654 Kcal/mole
 Ar    -1.5015026574     2.3640429298    -0.6280271469
 Ar     2.8233377288    -3.2263186462     0.9910373619
 Ar     1.7159527966     0.5406664000     1.9684258735
          3
Energy: -0.46528066762052683 Kcal/mole
 Ar     3.7382723378    -0.6832579351    -3.7583439990
 Ar     5.9288525590     2.4617370542    -1.6674587844
 Ar     1.7938253000     2.5158551275    -4.7490055455
          3
Energy: -0.39270058650010903 Kcal/mole
 Ar    -3.3066686476    -1.9794811877     0.9466137177
 Ar    -5.5587541643    -3.9965915382    -0.8015393346
 Ar    -3.3458171797    -7.0224667692     1.0062779043
          3
Energy: -0.6825670631445167 Kcal/mole
 Ar    -1.8472571810    -1.8941366173    -0.5224264352
 Ar    -5.5081680277    -2.5407594217    -1.9655457591
 Ar    -3.6178566046     0.7621784078    -2.4327705745
          3
Energy: -0.6730131700766488 Kcal/mole
 Ar     0.8437376255    -2.5840492503     2.4451575439
 Ar     3.5445335492    -0.9787403900     4.8730844686
 Ar     2.5987614798     0.4648531508     1.3844732706
          3
Energy: -0.6689148309412585 Kcal/mole
 Ar     3.2962191868     1.2697331181     2.7450397021
 Ar    -0.0477959441     1.4747234584     4.9144799632
 Ar     1.6263422601    -1.9777093781     4.4631860278
          3
Energy: -0.6694202563338513 Kcal/mole
 Ar    -7.4056544011    -6.7356694228     0.4912315674
 Ar    -3.9537209733    -6.5075979567     2.2791592526
 Ar    -4.2984955941    -7.1313458674    -1.7590472006
          3
Energy: -0.7016995910710075 Kcal/mole
 Ar    -7.4020996129    -6.6826966592     0.5665241117
 Ar    -3.9994099619    -6.6206057844     2.2957523765
 Ar    -4.2372230279    -7.4698850266    -1.4189826683
