          3
Energy: -0.0034087221403295343 Kcal/mole
 Ar    -2.4008513626     7.0865849781    -3.2520005824
 Ar    -4.8762315574    -2.1721735376    -2.3193227189
 Ar     3.0091678131    -6.0071255558     2.4038105999
          3
Energy: -0.024827152981013546 Kcal/mole
 Ar     0.3959967667     7.2154796428     6.0570574885
 Ar     4.0620158249     4.9824175191    -2.4122740193
 Ar     3.0738693991    -1.1129170195    -1.0620892856
          3
Energy: -0.010833106277721764 Kcal/mole
 Ar     1.6795762214    -1.6076051726     3.0663948507
 Ar    -5.1971612965     6.7016754569    -0.5363821410
 Ar     6.0431716645     4.1085089929     4.0747217874
          3
Energy: -0.5993290214214042 Kcal/mole
 Ar     5.3028982141    -1.8343732501     5.7885385209
 Ar     2.5364600440    -1.7709004348     3.0044377770
 Ar     1.0441195715    -0.8798985411     6.2143614278
          3
Energy: -0.011203536780833133 Kcal/mole
 Ar     2.4456717661     6.6365926774     1.9370276316
 Ar    -0.9401103423    -6.9630883271    -2.0363300788
 Ar    -5.4965894793    -2.6828513164    -5.4665136801
          3
Energy: -0.06891667947128442 Kcal/mole
 Ar    -4.7761619104    -0.4419718152    -0.2656678757
 Ar    -3.8985283591    -5.0367253833    -2.6478063450
 Ar    -5.0240697291     6.6412335081    -4.6310566560
          3
Energy: -0.06880092387608146 Kcal/mole
 Ar     7.0738270284     5.7301613245     2.5331689298
 Ar     3.8536772970     4.0424770694     6.2445280612
 Ar    -4.1781512259     6.9361356246    -1.9626804700
          3
Energy: -0.45695757652905666 Kcal/mole
 Ar    -2.7549064678     5.1539813785    -3.0476703964
 Ar     2.2988838403     4.3451122972    -4.7530023789
 Ar     0.2580513019     4.5123345857    -1.0538481050
          3
Energy: -0.6669212729838473 Kcal/mole
 Ar     1.1523845452     2.8079153477    -0.8536369694
 Ar     2.0622866865     6.8259277465    -1.2568599932
 Ar     2.6565234053     4.2602798979    -4.0415874278
          3
Energy: -0.7016941883852875 Kcal/mole
 Ar     1.1215185798     3.0580382803    -0.9121850204
 Ar     2.3460916322     6.6727408408    -1.0011970528
 Ar     2.9101691067     4.3910642288    -4.0125200305
