          3
Energy: -0.005180690964013848 Kcal/mole
 Ar     4.1017802071    -4.8788561369    -0.3633420034
 Ar    -0.5295941948     3.1241781936    -2.9825967725
 Ar    -4.6762744800     4.0286534745     4.7261416560
