          3
Energy: -0.7016941883852875 Kcal/mole
 Ar     1.1215185798     3.0580382803    -0.9121850204
 Ar     2.3460916322     6.6727408408    -1.0011970528
 Ar     2.9101691067     4.3910642288    -4.0125200305
