          3
Energy: -0.7016980504001943 Kcal/mole
 Ar     2.8627104650    -4.4847295324     6.3748645865
 Ar     5.6802770834    -7.0478528787     6.1372866995
 Ar     6.4455060829    -3.3284098359     5.7361262078
