          5
Energy: -0.002994486749924715 Kcal/mole
 Ne     4.3751568014     6.1485670042    -0.3561982440
 Ne    -2.5839944799    -7.2322936521    -6.0547234535
 Ne     7.4727616549     0.9887914630     3.5544233595
 Ne    -0.7599919781    -0.9014936124    -4.8600822096
 Ne     0.1540363215     4.7538376677     7.6032538497
          5
Energy: -0.0029408442237051956 Kcal/mole
 Ne     6.6147376272    -5.6099243938    -4.3359259048
 Ne     3.6670173393    -7.2595853413     7.2580628191
 Ne    -2.9632623543    -4.0147710743    -2.7472612521
 Ne     1.4438566579     2.9451783979    -0.9873963552
 Ne    -4.9357576942     3.5271839928    -2.0789544285
          5
Energy: -0.012285499134865773 Kcal/mole
 Ne     7.4370513295     6.1589880880    -2.9307026047
 Ne     3.7702735635     1.7269033436     3.5501031225
 Ne     1.7045450230     3.4909589029     7.4445896586
 Ne    -2.1892242905     2.2704178393    -2.0426336471
 Ne    -0.5306883071    -5.3186306623     5.0474895386
          5
Energy: -0.020409502610378355 Kcal/mole
 Ne     3.0274433258    -3.6149021507     7.0053085743
 Ne     5.6685264703     6.8782807327    -3.7706252796
 Ne     6.7865625178     0.5384406455     7.4494113479
 Ne    -1.4258266613    -1.8048301784    -2.5060291912
 Ne     4.0896029574    -6.3615592827     3.6831894705
          5
Energy: -0.02547599538861425 Kcal/mole
 Ne     0.0393378589    -4.0033143714    -2.8048943064
 Ne    -5.4518157912     3.9613221935     7.6206062958
 Ne    -6.7311322261     6.1072838243     4.1233640999
 Ne     3.0479632150     2.4836222673    -6.7108160095
 Ne    -7.6276899832    -0.8566465047     7.7186468488
          5
Energy: -0.022552816998724908 Kcal/mole
 Ne     2.2334548509    -5.6081568702     4.2896270956
 Ne    -6.0350106946     4.4480762962     6.8536999864
 Ne    -2.3669561065    -5.8565143815    -5.5565281779
 Ne    -6.7504426674     6.6739548924    -4.3772814022
 Ne    -2.0660315364     3.2694800126     7.3144241240
          5
Energy: -0.04102942415228775 Kcal/mole
 Ne     3.2542364582     3.6171982238    -7.8851227459
 Ne    -4.6297070393     7.8241906003    -5.9329220168
 Ne     5.0108044084    -4.7050899032    -3.6565381798
 Ne     4.5006417226    -1.5088824959    -5.7295582042
 Ne     7.9994623877    -4.0098740667     1.5042041209
          5
Energy: -0.020849387158169884 Kcal/mole
 Ne    -6.4632783688    -2.7138254207    -3.6058194532
 Ne     3.9141204392    -5.9817647854     5.6361453086
 Ne     4.1563427726    -1.4532148049    -3.6352790427
 Ne     3.2266886600    -6.4554227260    -6.6933577387
 Ne     0.2966387967    -0.5351974271    -5.6514116258
          5
Energy: -0.11195162973923085 Kcal/mole
 Ne     5.3329842349     4.5330682473    -7.5131264882
 Ne    -3.4606569356     0.6599847468     0.8655037594
 Ne     3.7284369451    -5.1388440417    -5.8578092064
 Ne     3.6685553736    -2.3008192486    -6.5177270562
 Ne     7.5929654497     6.2251322129    -5.6592847595
          5
Energy: -0.627848954217758 Kcal/mole
 Ne     5.1655065208     0.3071692820    -7.4884000248
 Ne     2.7865559402    -1.6416455071    -8.1122964125
 Ne     5.6465771374    -2.7637895414    -7.7624016464
 Ne     4.1196320403    -1.6675794585    -5.2879229787
 Ne     2.3936604225     0.7797461947    -6.1719732704
