          5
Energy: -0.2761244366209443 Kcal/mole
 Ne    -2.9891056091     0.1895809389     4.5267578475
 Ne    -4.9151203058     1.4269740734     6.6453573625
 Ne     8.0110588919    -4.7948938635    -3.0335799515
 Ne     5.3825151185    -5.0162751525    -1.3604305529
 Ne     5.4051562257    -3.4057244604    -4.0367396876
