          5
Energy: -0.007410361978284714 Kcal/mole
 Ne    -4.9998057463     6.3114390839     0.4117510242
 Ne    -0.8470293334    -6.6523415081    -6.4314970112
 Ne    -1.0413714833    -5.8779359460     8.0684059855
 Ne     7.8361095735     0.0495003229    -7.3101267362
 Ne    -3.7972806405    -7.1055213056    -2.3160334428
          5
Energy: -5.538031439437928E-4 Kcal/mole
 Ne     4.9470033065    -4.4907392045    -3.4713484648
 Ne     6.0834700308     4.9695264152    -2.1247934613
 Ne     6.2443924632    -7.2192373256     6.9730174898
 Ne    -3.2670666565     2.3210810115    -5.4128687950
 Ne    -4.6514645914    -6.6210789187     5.3944113274
          5
Energy: -0.016469845981477615 Kcal/mole
 Ne    -5.5997639075    -4.6415939292     6.0228576580
 Ne    -6.4548079677    -1.8504621280    -2.8380133691
 Ne    -5.0881973712    -5.6935302945     1.5599665234
 Ne    -5.9454247959     3.7219715483     3.5558726366
 Ne     0.4901846296     8.2424487689    -2.0949894338
          5
Energy: -0.02697229385687921 Kcal/mole
 Ne    -6.5687391213    -0.1640291733     2.4651954501
 Ne     3.5098910127     4.1337254945     0.4732349033
 Ne     1.8187971474     7.5072091838     2.1980809096
 Ne     0.8764334903     8.1667830003    -6.4783837198
 Ne     1.2414028298     2.9347500095     6.6321372149
          5
Energy: -0.09134968419647714 Kcal/mole
 Ne    -6.5114050025    -1.3813797012    -5.5696043202
 Ne     4.6532436204     3.0958038946    -7.3453779734
 Ne    -6.2629901957     2.1396962709    -3.9465916773
 Ne    -2.7956851523    -2.5024763207    -5.8525020041
 Ne     7.2090536805     1.1220554674    -4.8394416855
          5
Energy: -0.04830912798588627 Kcal/mole
 Ne     3.8686768088    -7.8389143044     2.0978650269
 Ne    -3.4778425957     0.1811634080    -2.3767073458
 Ne    -3.9374568291     1.9749047275    -5.4755565137
 Ne    -6.1775289521     6.6742450661     2.1316940691
 Ne     5.9419288841    -1.8741239206     1.6232940661
          5
Energy: -0.04348173610373313 Kcal/mole
 Ne     2.1234517497     2.9991296169    -3.4023673536
 Ne    -2.8186016567    -4.3402158528    -7.2093301174
 Ne     0.7388289840     7.9979282709    -6.7996326957
 Ne    -0.4426429035     1.1199700610    -5.4816291893
 Ne    -2.6525394510    -2.5530860532     0.2410396856
          5
Energy: -0.1326127884237428 Kcal/mole
 Ne     5.0568982260     0.4468761076     0.2283681810
 Ne     0.9164414399     3.9973950828    -8.1254471266
 Ne     7.7418405326     6.8037920238    -0.8504819080
 Ne     5.8868591543     3.7684915538     1.2893357967
 Ne     7.6660365145     2.6370482243    -2.2441095561
          5
Energy: -0.5032427949414326 Kcal/mole
 Ne     2.4320791948    -1.3926613521     2.1648328008
 Ne     5.1501140740     2.7511321287     0.3932994713
 Ne     3.5409431561     0.4927368981    -1.0054882577
 Ne     2.6511395125     1.9379501007     2.1069693690
 Ne     4.9302671563     0.0565622354     2.2741496346
          5
Energy: -0.6278281353627253 Kcal/mole
 Ne     2.2755687273    -1.1897904769     2.2786230904
 Ne     5.3417987389     2.4140379509     0.4057104537
 Ne     3.6318734684    -0.0706354843    -0.3145909957
 Ne     2.6487800092     1.8941448330     1.8867357288
 Ne     5.1135165576     0.0697925320     2.4482079126
