          6
Energy: -0.01968188773878976 Kcal/mole
 He     2.9842258890     5.6122431842     3.6354931810
 He     2.2727537161     3.1016015697     3.9147404642
 He     1.4369643679    -0.5476711564     3.0071570546
 He    -2.9964489181     6.0178941060     6.2432656179
 He     5.4591541283    -6.9283949353     6.9434278740
 He    -1.7094995160    -2.5606390529     0.2873341378
          6
Energy: -0.0026101504567441866 Kcal/mole
 He     1.3147982813     3.4210498423    -6.5502502997
 He    -3.7277167653     2.6688079611     7.1123342615
 He    -5.6038943983     0.5732937731     3.2234134219
 He    -6.9160821975    -1.0770028752    -7.2085711156
 He    -1.3451184422     0.1644914716    -1.7098257946
 He     6.1026201123     6.7763981123     2.6047784023
          6
Energy: 0.09824411329881058 Kcal/mole
 He     5.0885709110    -6.6011298784    -2.8993838537
 He    -0.6001100856    -1.8985168291     6.1429732380
 He    -4.3586184983    -1.4079116832    -3.4319285359
 He     5.5620508554     3.3864382945     5.0389910452
 He    -5.5262487910     4.1685765585     4.7713455902
 He    -3.4743128421     4.4904953430     3.7033291414
          6
Energy: -0.028748555768934373 Kcal/mole
 He    -5.4369638347     1.3804149091     5.7832650626
 He     0.7690833181    -0.8611871020     0.1689995355
 He    -4.2936616556     0.7893277898     1.5767114483
 He     5.8693820816     1.2608833057    -0.0145926635
 He     1.7614373623     1.6235952611    -0.7653809331
 He    -5.2068129311    -5.0510932125    -6.9414377014
          6
Energy: -0.014889107804054095 Kcal/mole
 He    -0.0939047803    -2.5754266130    -7.1218898662
 He     2.2220417223    -4.0745495952     5.2462596385
 He     4.5442300197    -3.7441716520     6.4097260207
 He     1.3689897875     0.7617443307    -3.9741905233
 He     5.0665245621     5.2770290940    -2.5336220276
 He     6.8655138433     1.3267302224    -1.5412872602
          6
Energy: -0.001646285729532378 Kcal/mole
 He     4.1840721890     5.3806881805     7.3053977122
 He    -0.7864287747    -6.6561206210    -0.9711883348
 He    -3.3549479676     2.9637999786     3.2499187439
 He    -2.9280722316    -6.2284779915     3.5508413860
 He    -4.6665263164     5.8891556500    -5.3273127486
 He     4.5629888799    -4.4708930676     6.5729673969
          6
Energy: -0.02112237311940384 Kcal/mole
 He    -0.2136055499    -6.8290415681     1.1625539286
 He    -4.4743685258     3.5951079188     4.2876915599
 He    -6.3939951550     4.3720515398    -0.7537884179
 He    -6.5476726139     3.7161088946     6.3178402243
 He     7.3543125372    -3.4263201192     2.6955612062
 He     0.8718029843     6.8396352288    -3.1312741190
          6
Energy: -0.010438931669383433 Kcal/mole
 He     2.2118970980    -5.9752934568     5.0582695964
 He    -4.8433186700    -6.0289512980     2.8521339315
 He     2.0165038226    -0.3858660047    -4.2371261742
 He    -1.2169286457     4.8373262321    -3.2956581999
 He    -3.0306747777    -3.1037787113     5.3391675263
 He     5.2798593486    -2.5141281908    -4.6295717380
          6
Energy: -0.0751810315693567 Kcal/mole
 He     5.6355731265     2.8316806451    -0.4342172341
 He     0.7848146995    -2.7845433269     3.2380291653
 He    -3.1532337032    -7.4724728922     4.0034587336
 He     1.0999682889    -6.2856475584     1.6852609019
 He    -1.2038297035    -5.3936485780     2.9042225402
 He     2.6833852410    -0.6470192534     1.7013976743
          6
Energy: -0.24599075980212642 Kcal/mole
 He     2.6962652454    -4.4934940568     0.3655107586
 He     1.3871256660    -3.6249272017     2.7554980783
 He     0.5318987104    -5.8125588678     4.3751776113
 He     0.6764394604    -6.1325193898     1.5428265764
 He    -1.3538527336    -4.4712950910     2.6944470415
 He    -0.0328560401    -3.6675979338     0.2802277783
