          6
Energy: -0.24588530550676044 Kcal/mole
 He    -3.4163297410    -0.9323517149     2.2360926962
 He    -6.1871641495    -0.6771320162     1.6018829704
 He    -4.7586249338     1.6088468976     2.6014013518
 He    -4.2454236061     0.6253169534    -0.0315887686
 He    -2.0852574224     1.5450699060     1.6016134944
 He    -2.6225620134     0.8307913843     4.3115989834
