          4
Energy: -0.05585600669545716 Kcal/mole
 Ar     0.3220252451     1.0942029602    -0.8912895663
 Ar    -2.9242954759     1.7797123785     4.7650108001
 Ar     2.7241691585    -7.2384503912     4.9001669324
 Ar     3.7736248506    -3.2941416863    -2.8912739681
          4
Energy: -0.37895500781398345 Kcal/mole
 Ar     2.4694892337     6.6673875929     4.8422392479
 Ar     3.3077838247    -0.6981377817    -0.3754956766
 Ar     6.7143434672    -1.8475933102    -2.9931317100
 Ar     0.9689151274    -0.7986981677    -3.1051515758
          4
Energy: -0.2306493733414168 Kcal/mole
 Ar     4.4896486426     2.6069420495    -0.4405135353
 Ar    -2.2306366282    -0.3710660749     0.2082982111
 Ar     0.9820431982     0.4614240948    -3.6109180864
 Ar     6.2434388254     6.9987237903    -2.4907434346
          4
Energy: -0.015500532016528588 Kcal/mole
 Ar     6.2710907966    -0.9265728477     1.6314226302
 Ar    -2.8296933309     3.6829747950    -4.7996679822
 Ar     1.3449676767    -1.4348293953    -7.3711106297
 Ar    -3.4806621595     6.5117577872     4.2096094839
          4
Energy: -0.2977189180104481 Kcal/mole
 Ar     1.8714647121     6.5401666581     4.9047182788
 Ar    -2.8849171083    -4.4895277551     5.5575720689
 Ar    -5.4395096164    -2.5029794302     3.7916659428
 Ar    -2.7657701463     2.5521892597     4.3572487539
          4
Energy: -0.015133951189969228 Kcal/mole
 Ar    -0.1895212853    -0.7223963817    -0.9100160840
 Ar     3.1084903052     4.4289349575     4.9608042831
 Ar    -5.0054320249     5.2388573220     0.6574896457
 Ar     6.5164706404    -6.9548624298     0.8904481071
          4
Energy: -0.33261805600685823 Kcal/mole
 Ar     0.6130035854     3.6678314912     4.5689168025
 Ar    -0.7847684782    -1.2769901779    -5.9719440929
 Ar    -5.6809350600    -2.3235726953    -6.1665096784
 Ar    -4.8556990749    -1.8122742508    -2.7180869698
          4
Energy: -0.6148862268128142 Kcal/mole
 Ar    -4.1197668769    -2.4092859126     2.8656946302
 Ar    -5.2858159531    -6.3746393377     2.3380549530
 Ar     2.1965897887    -7.2763028003     0.7493712007
 Ar    -1.6010437172    -5.0694828513     4.4594341453
          4
Energy: -1.3438926371349926 Kcal/mole
 Ar    -4.7016860400    -4.0333937229     1.6560865518
 Ar    -5.0261865388    -6.0100157718    -1.7510543595
 Ar    -3.1107317087    -2.3411523273    -1.3276144321
 Ar    -6.9300953864    -2.7281183970    -0.9911591700
          4
Energy: -1.4033058487901662 Kcal/mole
 Ar    -4.7540023846    -4.0364821365     1.6645374260
 Ar    -4.8858209358    -5.7756637325    -1.7316989266
 Ar    -3.0450739692    -2.4440250097    -1.3558823922
 Ar    -6.8512588842    -2.5530971055    -1.1467709739
