          4
Energy: -1.4031317761012125 Kcal/mole
 Ar     5.2296089291     3.8270669831     2.3630052825
 Ar     7.1827317165     0.7701997361     3.5831801301
 Ar     4.1510767205     2.0139151525     5.5521485333
 Ar     3.6852382813     0.3314583880     2.1483739499
