          4
Energy: -0.022955045657786537 Kcal/mole
 Ar    -2.5329032708    -3.6254330457     2.8279910924
 Ar    -0.4327473906    -4.9161035628    -3.6109381255
 Ar    -3.2242310497     4.5478810242     4.8841580705
 Ar     4.7852701934     1.8936089551    -1.3382495873
