          4
Energy: -1.403137686839614 Kcal/mole
 Ar     3.4254340306    -1.0112374513    -1.8870200765
 Ar     4.2012862903     2.6714976123    -2.5421120991
 Ar     3.7422524336     1.4420811227     1.0385577870
 Ar     6.8269592645     0.4105612751    -0.9522845362
