          4
Energy: -1.403319358670022 Kcal/mole
 Ar    -3.3249722925     2.4285124045     3.6131936272
 Ar    -6.5135382924     4.4747092145     4.1011821764
 Ar    -5.0919386562     3.9502989984     0.5950265741
 Ar    -3.2725306265     6.2100891813     3.0911897994
