          4
Energy: -1.4033058487901662 Kcal/mole
 Ar    -4.7540023846    -4.0364821365     1.6645374260
 Ar    -4.8858209358    -5.7756637325    -1.7316989266
 Ar    -3.0450739692    -2.4440250097    -1.3558823922
 Ar    -6.8512588842    -2.5530971055    -1.1467709739
