          4
Energy: -0.11996780028909763 Kcal/mole
 He    -5.4664360928     2.8475199053    -0.5479249047
 He    -6.2284469492     0.0954688341    -0.2099745347
 He    -4.2362117901     0.8002172378    -2.1635511689
 He    -6.9790208282     1.5160268916    -2.5833257960
