          4
Energy: -3.01764117466746E-4 Kcal/mole
 He    -2.0449023011     3.1054534180     5.6419914019
 He    -6.1830406949    -4.8020504690    -6.6198055529
 He     1.9019987407     1.7063515289    -3.6712915813
 He     1.5643422819    -4.7875543040    -6.7363389627
          4
Energy: -0.017896998491412255 Kcal/mole
 He     1.3369826077    -4.8473507890     4.4028678603
 He    -5.6305323280     5.8654989758    -5.9397949706
 He    -4.0766617413    -3.9375612891     0.0186530947
 He    -4.0290320874     7.4353533692    -3.8366607878
          4
Energy: -0.005195369633549011 Kcal/mole
 He     5.4416483088     3.8913082415    -7.2309747450
 He     2.9819855823     3.4004769469    -4.1303658190
 He    -3.7569725444    -4.3636802414    -5.2761838205
 He    -1.5528892961     5.9783812457     6.5441672633
          4
Energy: -0.004746752404526118 Kcal/mole
 He     6.8217861506    -0.4980164411     0.5391128194
 He     6.0126520432     4.0504034344    -1.0284591877
 He    -0.1620936963     2.0714052771     6.3709998752
 He     4.3562307988    -4.0059292662    -0.4214280738
          4
Energy: -0.0033005881405147406 Kcal/mole
 He     3.2966897274    -3.8488752475     3.0605140968
 He     5.9240212786    -3.7116506569    -0.8673658747
 He    -2.0945969053    -6.4709262341     1.3297685185
 He     4.3076938135    -3.7565782928    -6.0424422767
          4
Energy: -0.01988977199270072 Kcal/mole
 He    -2.0655185308    -3.5910321374     1.8350630346
 He    -7.3524105268    -2.4200818393     4.7368524771
 He    -1.2765282366     6.6483658810    -0.2924361931
 He    -0.0694065732     4.6345451199     1.5155941292
          4
Energy: -0.03775537943434417 Kcal/mole
 He    -0.3679949083     6.5555912307     3.6874459726
 He     1.3173733171     7.4195871747     1.2545555632
 He    -0.7933948033     5.9601839391    -0.5330886090
 He     6.0335646303    -1.2700637273    -4.1953748507
          4
Energy: -7.195982442293597E-4 Kcal/mole
 He    -5.8301053567     1.5574355424    -6.6007267335
 He     1.5820289494    -0.1843986460    -2.5727234202
 He    -0.4721171807     4.7790000262    -0.3864857014
 He     6.3748744154    -3.5487513137     5.0939140404
          4
Energy: -0.05484885430050596 Kcal/mole
 He     4.1297556406     2.8886105713    -2.3721749077
 He     6.0020636551     5.1969868754    -2.8675380442
 He     0.0313696695     0.4657624154    -4.4717990009
 He     6.9980394699     2.5805406583    -1.4384228159
          4
Energy: -0.11997804570218129 Kcal/mole
 He     3.8009966343     2.9497631537    -2.7214889937
 He     5.6367905238     5.1599582127    -2.6250076219
 He     4.8821355650     4.0396395772    -5.1421720713
 He     6.5682766389     2.5437582259    -3.3713266560
