          4
Energy: -0.1199644201094224 Kcal/mole
 He    -4.2433964969     3.6433839197    -3.7600919268
 He    -2.8849891615     4.6442312415    -6.0681632536
 He    -2.1187408499     5.5570409438    -3.4595206916
 He    -4.6493486330     6.3492872956    -4.5764363833
