          4
Energy: -0.11997804570218129 Kcal/mole
 He     3.8009966343     2.9497631537    -2.7214889937
 He     5.6367905238     5.1599582127    -2.6250076219
 He     4.8821355650     4.0396395772    -5.1421720713
 He     6.5682766389     2.5437582259    -3.3713266560
