          4
Energy: -0.0011899778502053161 Kcal/mole
 He     5.4647311386     4.3602587334     6.9040834481
 He    -2.5836344407    -5.8408090010    -0.3962912128
 He     1.7643060038     5.7694276037     3.5237572211
 He    -2.5422224880     2.5213130546    -3.9714765154
          4
Energy: -6.143332884582557E-4 Kcal/mole
 He     6.4328647297    -7.0918135877     6.8763008156
 He     3.6708831067    -0.1634939818    -4.3236253097
 He     0.5542306866    -4.8688182697    -2.6658117424
 He     2.5011159384     0.7840322835     7.2525795046
          4
Energy: -4.471281403853899E-4 Kcal/mole
 He     0.2720128910     5.8403355818    -6.0842825678
 He    -4.9671210505    -7.3361136901     4.6060420977
 He     3.8625305460     3.9592443444     2.9677472921
 He    -4.7156786488    -6.4446895695    -1.4619191311
          4
Energy: -0.03654186217901028 Kcal/mole
 He    -2.8701528966    -2.4469265344     4.7383711835
 He     4.1821811919     6.9024967438     6.7070287613
 He    -0.9807394306     1.5463367978     2.7439451083
 He    -0.6047228811    -0.1801420291     4.9191498046
          4
Energy: -0.00379065961067293 Kcal/mole
 He     4.0649209886    -4.5409873536    -4.4714447791
 He     3.6405609467    -0.2952395301     7.1976386461
 He     1.9833873603    -0.9383582947    -3.7663209507
 He    -6.5650879526     5.2733471432    -5.4058969078
          4
Energy: -9.959709089832898E-4 Kcal/mole
 He    -2.8125137635    -2.2009235124    -6.6931597484
 He    -2.4663060736    -3.8947946822    -1.1443470136
 He     1.6865422375     3.6434959624    -3.5491518356
 He     4.0552362683    -3.9932719875     0.6394401778
          4
Energy: -0.012688074562653088 Kcal/mole
 He    -2.7145219539    -0.7308396599     4.2198777909
 He     4.4997669596    -6.7674439274     2.1818924607
 He    -0.4776553688    -2.9852503227     6.7714848991
 He     1.4019354484     0.3645332286     6.5914160937
          4
Energy: -0.02303764629884011 Kcal/mole
 He     1.7030888707     6.2820659265     4.8291720662
 He    -0.1501616823     5.0299562535     2.9397341627
 He     4.3832865905     3.6281355544     1.6246403620
 He     2.5302774448    -3.0127328108     1.0948217917
          4
Energy: -0.09463325128291242 Kcal/mole
 He     1.1302844642     2.9854980804     6.9618756737
 He     0.7361565074     0.3328231382     6.1239273394
 He    -0.1257354841     2.8819739924     3.8082838151
 He    -1.7545449950     1.8088431220     5.8889498045
          4
Energy: -0.11997992573730994 Kcal/mole
 He     1.0238217627     2.9815412676     6.6891292057
 He     0.5674015738     0.3006402422     5.7937194089
 He    -0.3579250455     2.5041141916     4.2243438438
 He    -1.6291967044     1.9062668927     6.7236648456
