          4
Energy: -0.11997992573730994 Kcal/mole
 He     1.0238217627     2.9815412676     6.6891292057
 He     0.5674015738     0.3006402422     5.7937194089
 He    -0.3579250455     2.5041141916     4.2243438438
 He    -1.6291967044     1.9062668927     6.7236648456
