          4
Energy: -6.148859366142172E-4 Kcal/mole
 He    -0.6486815043    -0.0272904764    -4.4734877055
 He    -4.7070881107    -4.3131095187    -1.3816960201
 He     3.3784943308    -3.9235780407     0.6841948336
 He    -4.0692787702     1.6714726712     3.4377496422
