          6
Energy: -16.252460802033852 Kcal/mole
 H      1.0809553913    -4.7189616830    -4.8489008138
 F      1.4502112450    -4.0221610352    -5.3168836892
 H      3.1627633541    -4.2959820902    -4.4362325298
 F      3.6181537089    -4.9305097041    -3.9557293229
 H      2.0317659517    -5.5931641490    -3.2312932119
 F      1.1460064363    -5.7367361995    -3.4202539146
          6
Energy: -15.98279790675116 Kcal/mole
 H      4.7790580490    -1.3089083785     2.2676231490
 F      4.2282633878    -1.7037148667     1.6498512832
 H      5.1639955354    -1.7790715062     0.3209809079
 F      5.8604291516    -1.5813836850    -0.2418589838
 H      6.4797090201    -0.5875595069     1.3737990449
 F      6.3944426530    -0.5031262282     2.2829138165
          6
Energy: -15.757965602759668 Kcal/mole
 H      6.1579678698     5.0088207373     5.5352021489
 F      6.5374058544     4.8041019438     4.7258777199
 H      6.7574986383     3.2073423053     5.2764527421
 F      6.7894636320     2.5729518204     5.9378270324
 H      5.9866424937     3.5631211311     7.4116685219
 F      5.6077401642     4.3981733402     7.4085327914
          6
Energy: -15.847689166969019 Kcal/mole
 H      2.1121672766    -0.5468959019    -1.2718591754
 F      2.5775922341     0.2239053605    -1.0982676352
 H      2.4753083795     0.9493721820    -2.7808869986
 F      2.4080818586     1.0561658157    -3.6891626807
 H      1.5618729659    -0.4585009152    -3.5782860421
 F      1.2187533803    -1.1565450543    -3.0925985603
          6
Energy: -16.437948479067302 Kcal/mole
 H      5.1459338030    -3.6066390719    -3.9322318965
 F      4.6514192529    -4.1914183703    -4.4365904314
 H      5.5857435859    -4.0667222026    -5.9913721544
 F      6.2262859635    -3.5028586938    -6.3270094675
 H      6.5676558270    -2.7230088655    -4.8940027184
 F      6.6284950028    -2.4760393946    -4.0129841743
          6
Energy: -14.663989166955645 Kcal/mole
 H      4.8527435247    -0.9860099607    -5.0286616454
 F      4.8735399734    -0.0717370774    -5.0962012818
 H      3.6143216999     0.0604552055    -6.2082144813
 F      2.8348807401    -0.1069066166    -6.6613709782
 H      2.9357264318    -2.0085970752    -6.2008356456
 F      3.3396447703    -2.3343891839    -5.4447943256
          6
Energy: -16.201953949908926 Kcal/mole
 H     -1.7007379672    -4.4968017300    -2.7594931140
 F     -0.8263605962    -4.3762437584    -3.0081273607
 H     -1.2778563400    -4.2177984721    -4.7263684755
 F     -1.7755864674    -4.4826022053    -5.4495784748
 H     -3.2507243170    -4.9940796564    -4.1052761048
 F     -3.3241204574    -4.8142897994    -3.2090743340
          6
Energy: -16.651850965550835 Kcal/mole
 H      1.0010038574    -2.0339317114    -6.5946813365
 F      0.7311255490    -2.9102736174    -6.6036011066
 H     -0.9481942162    -2.4412429553    -6.4156330458
 F     -1.6368573869    -1.8456003861    -6.5244538480
 H     -0.2293452700    -0.3341574067    -6.5407284446
 F      0.6868954463    -0.3684399990    -6.5554475997
          6
Energy: -17.128965808342343 Kcal/mole
 H     -6.9122609286    -2.1525114845    -6.4662742282
 F     -7.2857410878    -2.8350798792    -6.9515596672
 H     -6.1138813000    -4.0920996725    -6.3234420368
 F     -5.3265604170    -4.2681281578    -5.8875191085
 H     -5.1878464616    -2.6353634816    -5.3297760641
 F     -5.5990817725    -1.8227163362    -5.2231030298
          6
Energy: -16.385019485422504 Kcal/mole
 H     -5.2889485347    -5.8929715596    -2.4340014872
 F     -4.9795911994    -6.5082810388    -1.8285419230
 H     -5.8921224712    -5.6061538441    -0.5361904890
 F     -6.5553006241    -4.9926488571    -0.3790428879
 H     -6.7671661171    -4.7958065710    -2.0707620766
 F     -6.5481784745    -4.8047797497    -2.9611849506
          6
Energy: -16.715079942944556 Kcal/mole
 H     -5.4511583142    -3.1741572056    -6.7057921682
 F     -6.0066209700    -3.4694921452    -7.3729709384
 H     -6.3375498838    -4.8476562559    -6.3441085910
 F     -6.1355880443    -5.3789366100    -5.6244964727
 H     -4.7821489489    -4.0151206614    -4.9435765528
 F     -4.6325972092    -3.1467674453    -5.1975174302
          6
Energy: -16.797265427607783 Kcal/mole
 H     -2.8821822248    -5.1325972549    -1.1514893527
 F     -3.2868272214    -4.8020624756    -0.3978991548
 H     -4.5234112061    -4.0729199355    -1.4262593204
 F     -4.8869420192    -3.7765698707    -2.2142383729
 H     -3.4842603395    -4.5507828593    -2.9367083084
 F     -2.7579571424    -5.1095867139    -2.9033778739
          6
Energy: -17.215502960053072 Kcal/mole
 H      0.7040270328    -0.9968905971    -5.7243790524
 F      0.9492560814    -1.6584001344    -5.1385831443
 H     -0.3995405144    -2.6960333095    -5.7571260835
 F     -1.0286162820    -2.7713520176    -6.4200587882
 H     -0.8211783366    -1.0406555060    -6.9421804537
 F     -0.3700739610    -0.2482466900    -6.8448043232
          6
Energy: -16.867675701623142 Kcal/mole
 H     -3.0358233808    -5.4990594829    -2.2049306661
 F     -2.1560089358    -5.6673727056    -2.0087516626
 H     -1.6705923754    -5.5297223308    -3.6864769830
 F     -1.8747917647    -5.4935262699    -4.5797190861
 H     -3.6191811273    -5.1839871028    -4.2216265556
 F     -4.2663402495    -4.9762011493    -3.6060787766
          6
Energy: -16.45558832996261 Kcal/mole
 H      3.7431783522    -5.3423383745     2.9534013411
 F      3.6656138698    -4.5704724111     2.4644272256
 H      2.9660046240    -5.2709490485     1.0002136620
 F      2.6235087309    -6.0198476293     0.5968075652
 H      3.0685165095    -7.1316767277     1.8269482407
 F      3.2297046671    -7.2072844983     2.7264985966
          6
Energy: -15.519129577984643 Kcal/mole
 H      5.3577903608    -2.4358436387     0.2991253673
 F      4.8408273146    -1.8962796623     0.8306410530
 H      3.1598571742    -1.7547600215    -0.1501874402
 F      2.7605178555    -1.8867158799    -0.9650523124
 H      4.1884298969    -2.5516157444    -1.6636657123
 F      4.9276331515    -3.0890492751    -1.7387173515
          6
Energy: -16.912155649880674 Kcal/mole
 H      4.1921110336    -0.3419800577    -2.5514304447
 F      3.5862668864    -0.1158779180    -3.2015994163
 H      3.7619468168    -1.7679454713    -4.0091343050
 F      4.0099537265    -2.6448880697    -3.9073833746
 H      5.0598652013    -2.2196911277    -2.3807860894
 F      5.3688288466    -1.4948922057    -1.9116411347
          6
Energy: -16.901549778893468 Kcal/mole
 H      0.2408652013    -4.5375766664    -4.3198372346
 F      0.0883112673    -5.3617156257    -3.9478005790
 H      1.6603185085    -5.9085948150    -3.7247563694
 F      2.5678714404    -5.7807207806    -3.7545037580
 H      2.2270269744    -4.1347324899    -4.6441321803
 F      1.6102215236    -3.5130919514    -4.9161672456
          6
Energy: -16.833032043756816 Kcal/mole
 H      3.3554416263    -4.0786437588    -7.4640641359
 F      3.4944167531    -4.9326760858    -7.1604135168
 H      1.8708537860    -4.9046801085    -6.0224058876
 F      1.0716686464    -4.4600807620    -5.9551486671
 H      1.6404174670    -3.1552999691    -6.8716845044
 F      2.2243310806    -2.6872844978    -7.4016801745
          6
Energy: -17.038954344676768 Kcal/mole
 H      0.8479168215    -0.3068335454    -6.8599842762
 F      1.3588410924     0.1033010216    -6.2183963817
 H      0.0555190179    -0.2917841018    -5.0624543941
 F     -0.7974921132    -0.5780654478    -4.8855250262
 H     -0.9731969887    -1.0002797382    -6.6257298791
 F     -0.4932389495    -1.0803663282    -7.4029785000
          6
Energy: -17.08711977287402 Kcal/mole
 H     -1.2935475670     0.2267845133    -2.2131251465
 F     -2.0818599970     0.1378525813    -2.6730638645
 H     -1.7893843737     1.4260089927    -3.7529135640
 F     -1.2089563490     2.0934184773    -3.9948988694
 H      0.0110845100     1.6643534807    -2.8173060241
 F      0.3583064278     1.1101652669    -2.1744986164
          6
Energy: -16.799434298356942 Kcal/mole
 H     -1.8504951006     1.6553826562    -0.6025456650
 F     -2.0184670390     1.7775509381     0.2906224820
 H     -3.4633198564     2.6826131543    -2.766369E-40
 F     -4.0244372179     3.0606460684    -0.6192495139
 H     -3.1466729786     2.5706366951    -2.1269595328
 F     -2.3985141776     2.1516459029    -2.4519120286
          6
Energy: -17.013560540906468 Kcal/mole
 H     -4.3070828906     5.3367528121    -5.1837775121
 F     -4.6297772129     6.1861098999    -5.3076722728
 H     -5.8259492367     5.6134375563    -6.3794041798
 F     -6.3134948095     4.9318414699    -6.7517146545
 H     -5.1547220200     3.5441581310    -5.8437326803
 F     -4.3796426391     3.6090940166    -5.3580123039
          6
Energy: -17.117398272112723 Kcal/mole
 H     -4.5604325213     4.0926325824    -5.9221797158
 F     -3.6448055246     4.0611835794    -5.8831007825
 H     -3.4127733907     2.5052078491    -6.8729136116
 F     -3.8648868542     1.7997617479    -7.2455101957
 H     -5.3868380235     2.5762486106    -6.9674935862
 F     -5.9785394313     3.2213252905    -6.6942637910
          6
Energy: -17.07927405680971 Kcal/mole
 H     -5.8798142049     1.5532413483    -7.0941855296
 F     -5.1921776417     1.0697729551    -6.7277114245
 H     -5.0477333195     1.9895920599    -5.3539691610
 F     -5.2421813099     2.6794950517    -4.7820313663
 H     -6.7029337546     3.1059831986    -5.7582205808
 F     -7.1372320296     2.8888392254    -6.5361167842
          6
Energy: -17.26796128564399 Kcal/mole
 H     -1.8533352592     4.4771447222    -1.0738504319
 F     -1.0680308404     4.0137222941    -0.9767647846
 H     -1.2368141290     3.0899270768    -2.5459878958
 F     -1.7808644551     2.9351001270    -3.2677405254
 H     -2.8786166893     4.2351859978    -2.8205742825
 F     -3.2392583339     4.8305704989    -2.2236288076
          6
Energy: -16.840939536748067 Kcal/mole
 H      3.1166966010     5.1968105397    -4.2836655018
 F      3.5363654746     5.1157727948    -3.4723702902
 H      2.1518343248     4.2472435394    -2.5204716966
 F      1.3112854940     3.9345459549    -2.7117486782
 H      1.1956207321     4.4862963315    -4.3590152231
 F      1.5027292849     5.0197288311    -5.0387380381
          6
Energy: -16.837513498384908 Kcal/mole
 H      0.7832134990     5.6049859634    -2.1424805974
 F      1.1290419183     5.1726101301    -2.8734681781
 H      2.6791396018     6.1499472868    -2.8903216387
 F      3.1805053170     6.6855085112    -2.3401438542
 H      2.1016942805     6.7326924524    -1.0073215649
 F      1.2914653744     6.4931909095    -0.6508708241
          6
Energy: -16.723432195111968 Kcal/mole
 H      3.0573959362     5.3091358416    -4.6383347120
 F      2.7759985832     5.7964812604    -5.3623505768
 H      1.0796229684     6.0952913452    -4.7407239775
 F      0.5705651318     6.0681350698    -3.9784827719
 H      1.8145836675     5.4582860879    -3.1200230862
 F      2.5935348373     5.0092689865    -2.9397241185
          6
Energy: -17.12823309240747 Kcal/mole
 H      5.4217458448     4.7046440355     1.4709376977
 F      5.7594206464     4.9684677329     2.2816545317
 H      4.3276305916     5.6208985909     2.9402714739
 F      3.4335632742     5.8246846895     2.9422356541
 H      3.3633785379     5.0653573261     1.1916652944
 F      3.8943671738     4.7252323175     0.5258912733
          6
Energy: -17.240112511832763 Kcal/mole
 H      7.2353126654     5.5196836381     3.7144648236
 F      7.3235010728     4.6085622378     3.6599707980
 H      5.5953431344     4.4159352441     4.3326355719
 F      4.8802615731     4.8479897683     4.7106253188
 H      5.6569729392     6.4619883682     4.4468019689
 F      6.3664152330     6.9071017926     4.0733656675
          6
Energy: -17.365974508192153 Kcal/mole
 H      3.3975257356     3.6903062606     2.0963047232
 F      4.2615425643     3.6144763874     1.7986241057
 H      4.7608959778     2.7287472109     3.2629033115
 F      4.5623519569     2.3053415844     4.0516979281
 H      2.9294464434     2.9508192503     3.9363430665
 F      2.2968918113     3.3781890322     3.4282892239
          6
Energy: -17.059878986542856 Kcal/mole
 H      2.5910966497     3.5683270027     1.0163280889
 F      2.2882733561     4.4076132256     1.2279543844
 H      2.6775694522     4.1384486123     2.9972557450
 F      2.8458347673     3.5169978647     3.6502295209
 H      3.0979135185     2.2540019528     2.4018355131
 F      3.2198362154     1.9883349578     1.5326721776
          6
Energy: -17.352589427591454 Kcal/mole
 H      4.6186217354     4.5400832678     2.0394117460
 F      4.3197419035     5.2125881084     1.4923312351
 H      3.0102670313     4.1672539106     0.7558251060
 F      2.5692266143     3.3700323430     0.8597968456
 H      3.6562578596     2.7763690985     2.0767466629
 F      4.3347877024     2.9102511776     2.6788777460
          6
Energy: -17.263158092727224 Kcal/mole
 H      2.3557817756     3.7356894098     1.2016469843
 F      3.1827774191     3.4281371227     0.9518895093
 H      2.5195565508     1.9351557697     0.2915472731
 F      1.7414942093     1.4934183855     0.0906092825
 H      0.7515347099     2.6380474109     1.0174050892
 F      0.6837941323     3.4711786977     1.3944892618
          6
Energy: -17.1618952279199 Kcal/mole
 H      0.3812623579     5.0200427893     0.3225687926
 F     -0.1693005128     5.7227623515     0.1129149294
 H      0.3681456855     5.6477330212    -1.6476967443
 F      0.8350333873     5.2164800561    -2.3087003403
 H      1.6503081593     4.0963511708    -1.0579285722
 F      1.6537204314     3.9409599084    -0.1541969129
          6
Energy: -17.40512975627047 Kcal/mole
 H      1.3918131738     5.8899709729    -2.9132917723
 F      1.1873436045     6.5250354781    -2.2841858435
 H      1.2683440550     5.2153196273    -1.0007247313
 F      1.4528766607     4.3325600696    -0.8346757000
 H      1.7981400140     3.9506237735    -2.5493807480
 F      1.7679403120     4.2740249572    -3.4069287946
          6
Energy: -17.311736431221334 Kcal/mole
 H      2.2284513736     6.0924489686    -1.1527336136
 F      2.2921779056     6.1776528027    -2.0635399793
 H      1.7574266888     4.5271104779    -2.3879909425
 F      1.5495965008     3.7089281695    -2.0298382889
 H      1.7519849357     4.3217896811    -0.2910999311
 F      1.9728804644     5.0729626334     0.1862189991
          6
Energy: -17.42897011893433 Kcal/mole
 H      3.4382370127     7.1935275967     1.5853541211
 F      2.6589707829     6.8228703886     1.2751181188
 H      3.5192269255     5.9246867251    -0.0728809505
 F      4.3359545033     5.7467303443    -0.4499440622
 H      5.1694261090     6.8392539858     0.6946739989
 F      5.1517798202     7.4285664636     1.3970189369
          6
Energy: -17.032299784356667 Kcal/mole
 H      4.5264035924     6.9502854578     1.9045577949
 F      3.7636268892     7.4259994680     2.0855464178
 H      2.7732309628     6.2005382575     0.9947841267
 F      2.9107257127     5.4982379330     0.4214095127
 H      4.5337513571     5.4432209547     0.7597270863
 F      5.3357780124     5.7141015484     1.1122408424
          6
Energy: -17.351211825710323 Kcal/mole
 H      3.8708645979     6.8439089207     2.8950060489
 F      3.0083736925     7.0441699880     2.6564815365
 H      3.4535636723     7.3448955302     0.8725778622
 F      4.1534901794     7.3045437030     0.2815079724
 H      5.3941717885     6.7247017820     1.5332538086
 F      5.5244784896     6.5428615281     2.4225475091
          6
Energy: -17.29966113806671 Kcal/mole
 H      6.6576552980     3.6179895468     1.6777815425
 F      6.2094593191     2.8827520865     1.9931150825
 H      4.8352720860     3.7072331435     2.5783172200
 F      4.3743681291     4.4925694411     2.6864996684
 H      5.6138190246     5.4753542943     1.8676581563
 F      6.4100064786     5.4833778196     1.4127843702
          6
Energy: -17.48898882607176 Kcal/mole
 H      6.3973113520     3.1429024272     4.4434129866
 F      6.5070761574     2.2556562146     4.2393668012
 H      6.0426673748     2.4482872553     2.5247603157
 F      5.7915911246     3.0396162015     1.8704058292
 H      5.7992466624     4.4457947724     2.9417826772
 F      5.9761022907     4.7956717091     3.7707562690
          6
Energy: -17.53689730758373 Kcal/mole
 H      6.2764210629     2.2043942376     4.3906006967
 F      7.1871310843     2.1847242993     4.4960016005
 H      7.4315191926     3.4794314529     3.3841404125
 F      7.0841242803     4.0825903425     2.7871436548
 H      5.4024642097     3.5015943565     3.0976208875
 F      4.8926198235     2.9127045507     3.5815180859
          6
Energy: -17.318344768955512 Kcal/mole
 H      5.5224491100     1.7711130922     4.8588835313
 F      4.9719888454     1.4316418382     4.2087744906
 H      5.0167828034     2.9066786824     3.2584088440
 F      5.3466828594     3.7527647825     3.1311560863
 H      6.3670789849     3.6845306158     4.7455171681
 F      6.4947536984     3.1550630298     5.4832517023
          6
Energy: -17.3959844697265 Kcal/mole
 H      4.2770450048     2.6928182746     6.3944693846
 F      4.3102481571     2.1657404196     5.6448191425
 H      5.9031823210     2.7293607684     5.2132948340
 F      6.6460814775     3.2215470732     5.4294949371
 H      5.9363347571     3.8991579081     6.8662760247
 F      5.1833882407     3.9002522275     7.3896872836
          6
Energy: -17.47942693138583 Kcal/mole
 H      5.4679356791     3.1205413467     6.4212253191
 F      5.9361848783     3.7912286308     6.0067253139
 H      4.7939330766     3.8011603944     4.6575033384
 F      4.0014015732     3.5036380763     4.3049933578
 H      3.7405786793     2.3510348571     5.6673483438
 F      4.0522554768     2.0738250290     6.4839885860
          6
Energy: -17.34314241725542 Kcal/mole
 H      4.9985880655     1.6837641567     6.6867064019
 F      5.7196511128     1.2120730283     6.3729157693
 H      5.6999931219     2.2117902629     4.8381126944
 F      5.3266993346     2.9408082363     4.4257129575
 H      4.1764561099     3.1510474192     5.7183605618
 F      3.7972895476     2.9270390368     6.5226875865
          6
Energy: -17.435308668433322 Kcal/mole
 H      6.0558680515     2.3660057461     6.9236838120
 F      6.9085527902     2.5507003521     6.6413619406
 H      6.3756199663     2.6713546743     4.9146608523
 F      5.6669553735     2.5361723885     4.3486138185
 H      4.5482799130     2.1737741269     5.6173930540
 F      4.4018892411     2.0029301682     6.5063649956
          6
Energy: -17.512226509723803 Kcal/mole
 H      5.1445937549     2.7289986919     6.3845504645
 F      5.3559338687     3.6087633707     6.2354247925
 H      5.8045768105     3.2748041166     4.5245159862
 F      5.9418388551     2.6257571625     3.8914392275
 H      5.3619643828     1.3079656253     4.9168488717
 F      5.0237325638     1.0699028000     5.7352707237
          6
Energy: -17.46965805246907 Kcal/mole
 H      5.0269250634     2.5535955034     6.2575601049
 F      5.7669602420     2.8655100873     5.8149019673
 H      4.7370602352     3.5265943007     4.4299910829
 F      3.8698580624     3.5711178985     4.1352589322
 H      3.1754141580     2.8004033595     5.5812223274
 F      3.3194289456     2.3676992923     6.3767824642
          6
Energy: -17.526753264196998 Kcal/mole
 H      4.9392414500     2.8456732455     6.3548733393
 F      5.5619276428     2.8897004609     5.6831498027
 H      4.3918274859     3.3868260162     4.4460679868
 F      3.5083856523     3.5640132128     4.2757030138
 H      2.9845336209     3.2148357411     5.9302268621
 F      3.2021129210     2.9706916433     6.7869309578
          6
Energy: -17.54470186867883 Kcal/mole
 H      4.9558757293     2.0845186045     6.1060183146
 F      5.5946467470     2.2918797401     5.4816290558
 H      4.4132277033     2.9020223051     4.3624925057
 F      3.5340169422     3.0600168739     4.1553327756
 H      2.9951414626     2.4891964380     5.7104651580
 F      3.2097323362     2.1175877278     6.5208642717
          6
Energy: -17.5489783088978 Kcal/mole
 H      4.8658363846     1.8785708648     6.0701557160
 F      5.4600673644     1.8850864267     5.3717746667
 H      4.3039145292     2.6104024189     4.2550620103
 F      3.4439697211     2.8991800493     4.1209299586
 H      2.9619022240     2.5155949295     5.8073560204
 F      3.2305761423     2.2083588079     6.6285193971
          6
Energy: -17.579566706753496 Kcal/mole
 H      4.8627370675     1.8617028508     6.0729755423
 F      5.4677840883     1.8794388473     5.3841413554
 H      4.2913269246     2.5863718306     4.2679198175
 F      3.4368477902     2.8938108500     4.1405005953
 H      2.9758922867     2.5344930559     5.8102090487
 F      3.2298340018     2.2073563060     6.6283680505
