          6
Energy: -17.580298668917806 Kcal/mole
 H     -7.2661980922    -6.9312232447    -3.0623879624
 F     -7.0085404063    -6.4035441157    -3.7667005732
 H     -5.8740031745    -5.4910306455    -2.7680878997
 F     -5.5023570832    -5.3646756451    -1.9393523588
 H     -6.4579286973    -6.6676841019    -1.2270136984
 F     -7.0880710735    -7.3219043407    -1.3527334852
