          3
Energy: -0.0032589768815460664 Kcal/mole
 Ne    -3.3119622691    -2.8102728341     1.3393057832
 Ne    -0.5176491028     4.3044639881    -0.3520617494
 Ne     1.8059117721    -2.6173981845     4.6590505223
