          3
Energy: -0.20699943611321533 Kcal/mole
 Ne    -2.6611950515     1.1076339110    -6.0352521992
 Ne    -3.3484568264    -1.8647600468    -5.3791884164
 Ne    -0.3753409896    -0.9973630099    -5.7482925724
