          3
Energy: -0.02108865811280786 Kcal/mole
 Ne    -4.8556197193     0.2280185973    -6.3113903222
 Ne     4.2504730547    -1.4225223644     2.4364831302
 Ne    -0.8256575111    -0.7539572370    -7.0335946186
          3
Energy: -0.02697758662865335 Kcal/mole
 Ne    -0.6711370369    -3.9451537853     4.6564386018
 Ne     1.1061251742    -5.6124574478     1.4536081932
 Ne    -6.9556610595    -6.5486019557    -3.6135133490
          3
Energy: -0.05953719785649692 Kcal/mole
 Ne    -0.6991436822     2.1283180226     4.4546265123
 Ne     1.8390616957     3.7993977331     2.9718954493
 Ne    -5.7082309950     6.9738335694    -0.3040595549
          3
Energy: -5.770718622892686E-4 Kcal/mole
 Ne    -5.9408400966     2.8957653868    -3.0644595377
 Ne    -1.4264424487    -2.9486567784    -6.3016811741
 Ne     4.8154156511     6.4049572876    -3.7609353922
          3
Energy: -0.00822814980547309 Kcal/mole
 Ne    -7.0933036920    -4.9751408182    -4.9277084986
 Ne    -3.6322553738    -3.7139372625    -1.5728072034
 Ne    -6.8759492465     6.1309304401    -1.2340358416
          3
Energy: -0.008025096474088828 Kcal/mole
 Ne    -1.8062656334    -5.1845258037    -2.7210007494
 Ne     4.4372275564    -0.8552533425    -3.7083362390
 Ne    -4.5973089088    -1.6938814612    -0.3133386709
          3
Energy: -9.968772578518713E-4 Kcal/mole
 Ne     0.2896342826     3.6331819852     2.2619964318
 Ne    -3.0299015065    -2.8012401819     2.0261979407
 Ne     5.4674333032     5.3815059268    -6.5061207542
          3
Energy: -0.002486398120762277 Kcal/mole
 Ne    -3.3698925573     1.4046542328     4.1404960861
 Ne     2.7526303624    -3.8273779141     0.4713590540
 Ne    -2.7172994063    -6.4318041817    -1.2058268541
          3
Energy: -0.02085510525747195 Kcal/mole
 Ne     3.0653300303    -6.9464722762    -4.9833335171
 Ne     3.2915410138     4.5981382712    -1.9950993751
 Ne     2.0644527558     2.0328026529     1.1218228273
          3
Energy: -0.20699940002258194 Kcal/mole
 Ne     0.1968318240     1.4730302740    -1.6814012486
 Ne     1.9671528441     4.0202688482    -2.0250262023
 Ne     1.4205509790     2.8729677091     0.8235884429
