          3
Energy: -0.20699940002258194 Kcal/mole
 Ne     0.1968318240     1.4730302740    -1.6814012486
 Ne     1.9671528441     4.0202688482    -2.0250262023
 Ne     1.4205509790     2.8729677091     0.8235884429
