          3
Energy: -0.20699905797022494 Kcal/mole
 Ne    -3.2790821396     6.3252839406     0.4793718042
 Ne    -1.0268236680     4.3682091666    -0.4350057211
 Ne    -3.6415218205     3.2495071546     0.8532040607
