          3
Energy: -0.20699701537579776 Kcal/mole
 Ne     0.1364562272     1.6886549709     3.6373362940
 Ne     2.6029665420     2.6993429756     5.2632359491
 Ne     2.7232586033    -0.0485904197     3.7838714391
