          24
Energy: -94.3659428758095 Kcal/mole
 H     -2.7185719721    -3.3926794491     2.3456595164
 F     -3.4017953119    -3.0617895030     1.8312601468
 H     -1.0599532116     0.8883393144    -2.8016297587
 F     -1.3581106217     0.2756768752    -2.1879230743
 H     -0.3684658958    -1.9436292090     5.4138639796
 F     -0.7591511044    -2.7479643243     5.6170857553
 H     -0.2498053428    -0.5473074627     3.7410700527
 F      0.1975186028    -0.5586687049     4.5414832022
 H     -1.3179312844    -3.5194220125     4.1794594905
 F     -1.4688939378    -3.9198337251     3.3684294431
 H     -3.5286121852    -1.2631180228    -1.3664430755
 F     -4.1140789011    -1.1625365515    -2.0650138251
 H     -2.9123933900    -2.0666289355     0.5790858488
 F     -2.5358189397    -1.5610428078    -0.0868445911
 H     -1.2905353979     1.5482690738    -4.7346175221
 F     -0.6600206972     1.7872149345    -4.1131313292
 H     -2.8922478216     0.1744582189    -5.3414733416
 F     -2.5362436502     0.9587631422    -5.6561411303
 H     -1.0572441417    -0.3805918451     1.6030692214
 F     -1.2527002081    -0.8232428054     2.3820082777
 H     -0.7734940307     0.3040816006    -0.6080960959
 F     -0.4890338633     0.4602501278     0.2495651451
 H     -3.6532553231    -1.1941651478    -3.6598557301
 F     -3.3576327529    -1.1948305288    -4.5278971192
          24
Energy: -94.52824794922749 Kcal/mole
 H     -2.9514523518    -3.0785125415     2.2977802610
 F     -3.4031565993    -2.8285142628     1.5399193678
 H     -0.9713725275     1.1894365960    -2.8668090463
 F     -1.1610085944     0.5485572501    -2.2389549024
 H      0.1532316160    -1.9768288325     4.8613172868
 F     -0.0163717163    -2.8766051194     4.9115800275
 H     -0.2027524735    -0.3288424232     3.6189769630
 F      0.3080115036    -0.3686167972     4.3795209518
 H     -1.3342731677    -3.3886473762     4.1158958797
 F     -2.0750638315    -3.6738874343     3.6568138591
 H     -3.1984119968    -1.5075315066    -1.6917722149
 F     -3.7102556178    -1.5701787156    -2.4500468583
 H     -2.7255654847    -1.9070826932     0.3975236628
 F     -2.3479876167    -1.4678426637    -0.3133857197
 H     -1.2294642007     1.6458174367    -4.8602760985
 F     -0.7284673196     2.0516090167    -4.2081838360
 H     -2.3406020457    -0.1664706084    -5.4670050515
 F     -2.1943980647     0.6839204630    -5.7774054728
 H     -0.8231686600    -0.1782422451     1.4223601976
 F     -1.0653760247    -0.6196542662     2.1887674132
 H     -0.5704323725     0.6073261887    -0.7051857050
 F     -0.1494002721     0.6626204735     0.1075648794
 H     -2.9921364879    -1.6489473692    -3.9529599745
 F     -2.6444314195    -1.6471771237    -4.8014804820
          24
Energy: -94.48287807928604 Kcal/mole
 H     -2.6762267572    -2.5463104933     2.5420628674
 F     -3.2498453693    -1.9382642260     2.1650609779
 H     -0.6138609998     0.9575067552    -2.9267591601
 F     -1.0188980848     0.4941541484    -2.2469515980
 H      0.0399856476    -2.0645059066     5.0702664875
 F     -0.4480118936    -2.8176868545     5.2585903033
 H      0.1715914473    -0.4012524284     3.6511897692
 F      0.6218471273    -0.5914361356     4.4270692574
 H     -1.0560700315    -3.3444867994     3.8589003136
 F     -1.4645943304    -3.5425071455     3.0621664560
 H     -2.9239975121    -1.4875019369    -1.6552848007
 F     -3.2859802119    -1.5972813121    -2.4906326408
 H     -2.6557220546    -1.4754166435     0.7296686184
 F     -2.2856765661    -1.3065474006    -0.0921820464
 H     -0.3213204761     1.1579999202    -5.0191641113
 F     -0.0416292842     1.6926320883    -4.3286351242
 H     -1.2001080723    -0.8267201412    -5.4378910423
 F     -0.9546198531    -0.0854339230    -5.9186397054
 H     -0.5442667689     0.1834791268     1.4799119326
 F     -0.7007218574    -0.2873911468     2.2510746850
 H     -0.4563654089     0.8222829730    -0.7056084934
 F     -0.1263552088     1.0372371357     0.1225080297
 H     -2.2509079397    -1.8653774798    -3.7126252789
 F     -1.6207295559    -2.0419633871    -4.3549504472
          24
Energy: -94.66326970014609 Kcal/mole
 H     -3.0621334609    -2.8627921529     2.4546398006
 F     -3.6439221583    -2.4911086606     1.8510983413
 H     -1.0909571331     1.1383006842    -2.7973322467
 F     -1.2804012102     0.6001507472    -2.0794223728
 H     -0.2876721271    -1.7187251191     5.0580554715
 F     -0.5798998628    -2.5677713914     5.2440994933
 H     -0.3242907337    -0.0888893839     3.7361559119
 F      0.1551803510    -0.2687713146     4.4968391377
 H     -1.5008665058    -3.3184943761     4.0890186335
 F     -1.9840637691    -3.6619070594     3.3893922091
 H     -3.0140142411    -1.6979827991    -1.5517291416
 F     -3.1437100729    -2.1060057842    -2.3626454350
 H     -3.1566494391    -1.4893314558     0.6675314456
 F     -2.8695411226    -1.0224949258    -0.0676702062
 H     -0.9859638684     1.3750145579    -4.7864875218
 F     -0.7791695914     1.9825645251    -4.1315003736
 H     -1.4627222591    -0.7049243696    -5.3015033602
 F     -1.3671457310     0.0970080871    -5.7358516792
 H     -1.1803021816     0.2336942956     1.6328300860
 F     -1.3133908816    -0.2572177145     2.3958384715
 H     -1.1296529863     1.0104738419    -0.4718126654
 F     -0.8478314772     1.2624435884     0.3636374432
 H     -2.0761233829    -2.1449181297    -3.6303678170
 F     -1.5480069692    -2.0711066315    -4.3763798251
          24
Energy: -94.67552592756378 Kcal/mole
 H     -3.1853792823    -2.7907684191     2.4925390861
 F     -3.7105509440    -2.3647123796     1.8732168946
 H     -1.3201234826     1.3263009055    -2.8504292384
 F     -1.5164763119     0.7384800637    -2.1745585227
 H     -0.5249908341    -1.7290206163     5.1206635975
 F     -1.0566903783    -2.3890006309     5.4708220974
 H     -0.1961013679    -0.4554201533     3.4857344755
 F      0.2733229375    -0.5969242014     4.2606579722
 H     -1.8542771589    -3.3070386704     4.2983124220
 F     -2.2425029045    -3.6843786978     3.5581879229
 H     -3.2221999652    -1.4606083685    -1.5584829655
 F     -3.2736102339    -1.9162024485    -2.3526366147
 H     -3.2405516879    -1.3335687049     0.6223767311
 F     -3.0219391745    -0.8001400676    -0.0907512082
 H     -0.8389022680     1.3757382185    -4.8331938709
 F     -0.8142034057     2.0491519513    -4.2112670981
 H     -0.9937341696    -0.7640155207    -5.1168217066
 F     -0.9182860770    -0.0313327272    -5.6630565548
 H     -0.8705555980     0.1738146472     1.3808556893
 F     -1.0177660217    -0.4339579512     2.0515497773
 H     -0.8908987094     1.0319316758    -0.6770901353
 F     -0.5361991255     1.2142905563     0.1486352694
 H     -1.9472705440    -1.9507875424    -3.3882570793
 F     -1.2566185312    -1.9157833842    -3.9904725774
          24
Energy: -94.56420209820185 Kcal/mole
 H     -3.1022680244    -2.9458406212     2.2659622239
 F     -3.6664133195    -2.6517637055     1.6055473136
 H     -0.8445377000     1.2188071075    -2.6476368952
 F     -1.4159967649     0.8492777553    -2.0330056277
 H     -0.5378459009    -1.6104544364     5.1055302013
 F     -0.9104291209    -2.4216644664     5.3153134974
 H     -0.6932848779     0.1289273987     3.8647738366
 F     -0.1753010444    -0.0603669317     4.5974056710
 H     -1.5251122616    -3.1898346803     3.9942888021
 F     -1.9079447910    -3.5587475965     3.2471398781
 H     -3.1771180254    -1.3398249525    -1.7669593241
 F     -3.3696673168    -1.6480064669    -2.6088844541
 H     -3.1038651599    -1.5813244585     0.5152813322
 F     -2.7579188549    -1.0301765565    -0.1308193908
 H      0.0015208919     1.0497421692    -4.4303163891
 F      0.1690910097     1.6840819555    -3.7896742962
 H     -0.8063856768    -0.9423168717    -4.9624660409
 F     -0.4432222817    -0.2005225376    -5.3608910832
 H     -1.5741622124     0.6238790325     1.7377754778
 F     -1.7693910391     0.1747250935     2.5130402354
 H     -1.2096837907     1.2678879146    -0.4388084135
 F     -1.0539694543     1.5216149520     0.4285234930
 H     -2.1114973069    -2.1116772219    -3.5584728830
 F     -1.3877867065    -2.2557502082    -4.1028761723
          24
Energy: -94.8907977142167 Kcal/mole
 H     -3.3835457877    -2.7739241714     2.3996658817
 F     -3.9967556247    -2.4610560408     1.7938802523
 H     -0.9885064134     1.0857364497    -2.6519276661
 F     -1.2339114830     0.5478437861    -1.9509734349
 H     -1.0855260302    -1.3324048693     5.3858990122
 F     -1.5998347760    -2.0765846416     5.5361387560
 H     -0.8294759377     0.0041730062     3.8811289480
 F     -0.4007163659    -0.0014424488     4.6916983135
 H     -1.9046503250    -2.9560718348     4.1434138414
 F     -2.1188798412    -3.3410006133     3.3391598082
 H     -3.0804361239    -1.8013222029    -1.6352212557
 F     -3.1477957240    -2.2665748212    -2.4225532603
 H     -3.3289986740    -1.6042169387     0.5698739469
 F     -2.9686258232    -1.1284580852    -0.1263113170
 H     -0.9327200343     1.2915452965    -4.6840674232
 F     -0.5736585174     1.8383876332    -4.0414732388
 H     -1.5415706408    -0.7313852385    -5.2005002209
 F     -1.6162242280     0.1024396029    -5.5747354085
 H     -1.5421158063     0.2110441935     1.7603626769
 F     -1.7850109450    -0.2359853362     2.5232883293
 H     -1.0397172499     0.9662728636    -0.3218119242
 F     -0.9489062042     1.2081003565     0.5580527345
 H     -2.0558801448    -2.2142948363    -3.6653193087
 F     -1.4072584099    -2.1169201455    -4.3061757782
          24
Energy: -94.75021696190652 Kcal/mole
 H     -3.1123368330    -2.4750527583     2.7227434894
 F     -3.6496179501    -1.9953687205     2.1551862455
 H     -1.0037708387     1.0564365119    -2.9550519204
 F     -1.0627295475     0.5512055390    -2.1920613997
 H     -0.3908593028    -1.3244718314     5.2918716623
 F     -0.6671020710    -2.1565647877     5.5605726951
 H     -0.4106667037     0.0615281333     3.7049615361
 F     -0.1208949667     0.0999453359     4.5741251909
 H     -1.6011620051    -2.9734088482     4.4449307012
 F     -2.0687274717    -3.2889436847     3.7219443241
 H     -3.0230257694    -1.7321851652    -1.5282642866
 F     -3.1559597573    -2.1830452009    -2.3156287404
 H     -3.1572545085    -1.2523672493     0.7400048273
 F     -2.9006399277    -0.9302828472    -0.0793239192
 H     -1.3094913545     1.3387252326    -4.9980100530
 F     -0.8938469410     1.8483387287    -4.3589303975
 H     -2.0317081022    -0.6554257235    -5.4341611484
 F     -2.0768942942     0.1338462712    -5.8988082471
 H     -0.7183747480     0.2267820646     1.4452557078
 F     -0.9226137296    -0.2856473705     2.1777797774
 H     -0.5788241833     0.9955813847    -0.6559822488
 F     -0.2972042704     1.1998848415     0.1924512030
 H     -2.2176900467    -2.0916784874    -3.6670974046
 F     -1.7041111624    -1.9467355120    -4.4128301070
          24
Energy: -94.38195262899912 Kcal/mole
 H     -2.9655376879    -2.5993413693     2.5293178848
 F     -3.5615936996    -2.0743917143     2.0710231209
 H     -1.0095789448     0.8629193046    -3.0068695549
 F     -1.1370023895     0.3353895461    -2.2677047427
 H     -0.6636002652    -1.4206726868     5.3804880950
 F     -1.0370427542    -2.2396060913     5.5559240846
 H     -0.1239016337    -0.1099619430     3.8472293121
 F      0.1365569376    -0.0830925780     4.7260514612
 H     -1.5638619225    -3.0657178454     4.2273085408
 F     -1.8829453464    -3.4275265970     3.4474565062
 H     -3.0765687152    -1.5723612001    -1.6085436725
 F     -3.4217084124    -1.8762012849    -2.4019217616
 H     -2.9955139152    -1.4445924719     0.7118505781
 F     -2.6116191214    -1.1395414588    -0.0630414574
 H     -1.2676224413     1.2059701012    -5.0474735749
 F     -0.8986941635     1.7153874094    -4.3801843333
 H     -1.9946546532    -0.7692119347    -5.5582052705
 F     -1.9884824956     0.0448687024    -5.9802522119
 H     -0.5790753052     0.1106352827     1.5613610507
 F     -0.7345292673    -0.3499876082     2.3388889396
 H     -0.5102055643     0.6498330362    -0.6793121716
 F     -0.1791384159     0.8776904182     0.1449235694
 H     -2.3192213688    -2.1262687133    -3.7055237711
 F     -1.7917365315    -2.0705297936    -4.4535491178
          24
Energy: -94.96208493832714 Kcal/mole
 H     -2.8332760003    -3.0831995424     2.3327951939
 F     -3.3324218544    -2.8217305673     1.6093476205
 H     -0.8369505996     0.7758711728    -2.9281414039
 F     -1.1271167933     0.2394143611    -2.2433738015
 H     -0.6203910601    -1.5576171284     5.3304118246
 F     -1.1720103577    -2.2304546749     5.6200577922
 H     -0.1699387175    -0.3562931837     3.6564506239
 F      0.1773052948    -0.3560840256     4.5051617362
 H     -1.6909350350    -3.2119347092     4.3862370441
 F     -1.9709212757    -3.6513654590     3.6316528399
 H     -3.3403878312    -1.3830426528    -1.6975496266
 F     -3.8378309412    -1.4661377650    -2.4634050664
 H     -2.7304060854    -1.8684597942     0.4159302936
 F     -2.4240168268    -1.3688082577    -0.2893093566
 H     -0.7098896448     1.0528866497    -4.9943820977
 F     -0.4224048509     1.5675555260    -4.2919880196
 H     -1.6947974549    -0.7663223017    -5.5850668283
 F     -1.1985359354    -0.1396280216    -6.0343638165
 H     -0.8021960191    -0.2606685625     1.4894562821
 F     -1.0362843969    -0.6663522330     2.2778168537
 H     -0.4992804645     0.3883501349    -0.6844278256
 F     -0.1384681883     0.5668100618     0.1394990861
 H     -3.0518028668    -1.7517532992    -3.8880605737
 F     -2.5595682460    -1.8892010754    -4.6494423353
          24
Energy: -94.45294364099901 Kcal/mole
 H     -2.9829675152    -3.0168131580     2.4171598807
 F     -3.4572126193    -2.6681304449     1.7140233742
 H     -0.9366209215     0.9751105112    -2.8609914335
 F     -1.3991714771     0.5493494238    -2.1934111163
 H     -0.4935261422    -1.6864784510     5.2050079978
 F     -0.9495599823    -2.4365350143     5.4702197782
 H     -0.2534592997    -0.4453102953     3.5230991634
 F      0.1617804596    -0.4567034236     4.3406168323
 H     -1.6574709043    -3.2981920017     4.2624473961
 F     -2.0629393298    -3.7385920685     3.5678020642
 H     -3.2878965972    -1.6375120518    -1.6361509390
 F     -3.8068116821    -1.6832252581    -2.3908206929
 H     -2.7624923050    -1.8870013832     0.4403690196
 F     -2.3674672574    -1.4985912612    -0.2903715561
 H     -0.6344780756     1.2314056339    -4.9434538758
 F     -0.2798027172     1.6183557134    -4.1915469493
 H     -1.7629021431    -0.5450036502    -5.5357291354
 F     -1.3783650716     0.1808750553    -5.9433077727
 H     -0.7445494663    -0.3452918848     1.3998097531
 F     -1.1263365673    -0.6677362130     2.1686772740
 H     -0.5974812645     0.4261249690    -0.6461324983
 F     -0.0025826333     0.3457369620     0.0470647226
 H     -2.9613149940    -1.6761536596    -3.8336200446
 F     -2.4326704457    -1.7492272485    -4.5793305730
          24
Energy: -94.9330559521388 Kcal/mole
 H     -2.7725427040    -3.1662613371     2.4202279485
 F     -3.3262295761    -2.9074042029     1.7366251167
 H     -1.5577108336     1.0427406617    -2.8228449333
 F     -1.6593844621     0.3994249887    -2.1773246640
 H     -0.3454325568    -1.5081681079     5.3041021240
 F     -0.6434764626    -2.3280281131     5.5867474886
 H     -0.5195927425    -0.1225300466     3.6842167455
 F     -0.0518888446    -0.0890418967     4.4722653529
 H     -1.4014531688    -3.3282447050     4.4247985044
 F     -1.7759578809    -3.7328347975     3.6920351882
 H     -3.3752077181    -1.6876806765    -1.7387415127
 F     -3.8500149152    -1.9513658959    -2.4776036316
 H     -2.9006949093    -1.9449951584     0.4775202436
 F     -2.6283711368    -1.4425995674    -0.2396460085
 H     -1.6966183654     1.5624992632    -4.8647922747
 F     -1.4801991563     2.0505640707    -4.1192424980
 H     -2.3039293844    -0.3688633176    -5.6289641799
 F     -2.1503764953     0.4647107623    -5.9789138384
 H     -1.1872732534     0.0346716221     1.5865376747
 F     -1.4281254933    -0.4079407478     2.3526796253
 H     -1.1139900991     0.6155973534    -0.5782544836
 F     -0.7412831756     0.8412594334     0.2286254176
 H     -3.0671109589    -1.8096301487    -3.9643616386
 F     -2.5872587396    -1.7495113980    -4.7434743285
          24
Energy: -94.9102797700028 Kcal/mole
 H     -2.8938001584    -2.8025087793     2.7265924738
 F     -3.2922589436    -2.6629136843     1.9125698660
 H     -1.1998879190     0.9437147648    -2.9074036105
 F     -1.1379806210     0.2854482883    -2.2719968648
 H     -0.4443966433    -1.1206587403     5.4990005298
 F     -0.9236672484    -1.7781307734     5.9219889610
 H     -0.0198134298    -0.2567693722     3.5762315963
 F      0.2755673120    -0.0825564836     4.4266956383
 H     -1.7683903079    -2.6989557622     4.8502548158
 F     -2.1698374325    -3.1882897381     4.1867177285
 H     -3.2592484542    -1.4598507393    -1.6429927331
 F     -3.7446910094    -1.4646981376    -2.4209458347
 H     -2.6234613174    -1.9968580937     0.5529636541
 F     -2.3154837309    -1.6084872509    -0.2185328751
 H     -1.9066065613     1.6331140182    -4.8146528005
 F     -1.5098884798     2.0357911771    -4.0926037236
 H     -2.7462241475    -0.1782119167    -5.5874615272
 F     -2.6381547411     0.6607500650    -5.9415134961
 H     -0.6601296844    -0.3835439229     1.3924096905
 F     -0.8414725291    -0.7899978514     2.1941571424
 H     -0.5815114577     0.4645552440    -0.7038356412
 F     -0.2589635430     0.6208752928     0.1402116828
 H     -3.1697801352    -1.5816496640    -3.9610064463
 F     -2.8571185148    -1.6159638772    -4.8223741064
          24
Energy: -94.71661223279747 Kcal/mole
 H     -2.9029619672    -2.5140077769     2.6443577682
 F     -3.3537716885    -2.0571782151     1.9894025433
 H     -1.3291759582     0.8985817518    -2.9103429866
 F     -1.3759358762     0.1529324139    -2.3786385810
 H     -0.5609123458    -1.0924666854     5.3958175064
 F     -1.2666794364    -1.5667173671     5.7391367526
 H      0.1665547527    -0.3817066819     3.4478681181
 F      0.4464550902    -0.2647598157     4.3132398484
 H     -1.7938396539    -2.6872070186     4.6518179451
 F     -1.9880261748    -3.2073567703     3.9220064414
 H     -3.1010295279    -2.0993375038    -1.5939314062
 F     -3.5999632358    -2.2725507256    -2.3435655403
 H     -2.5839001953    -1.8593830582     0.5541965658
 F     -2.1599136347    -1.8101254903    -0.2574056080
 H     -1.9264679247     1.7810162388    -4.7081571708
 F     -1.4345707561     2.1062593141    -4.0059156757
 H     -2.9814072378    -0.0247280189    -5.5611032265
 F     -2.8533976311     0.8451960894    -5.8213619179
 H     -0.2904822831    -0.3911454283     1.2215208275
 F     -0.4435383950    -0.8626911280     1.9929529241
 H     -0.5237360977     0.3225369184    -0.9282319761
 F     -0.0354664288     0.5104472239    -0.1751241169
 H     -3.2089328529    -1.8290347034    -3.9294833550
 F     -3.0446962823    -1.5315107573    -4.7811845059
          24
Energy: -94.97996487861354 Kcal/mole
 H     -2.9295526956    -3.1191360302     2.6430422264
 F     -3.2586730646    -2.9090026078     1.8133358160
 H     -0.9741294941     0.5385349111    -3.2425660533
 F     -1.1993069889    -0.0577445399    -2.5832975860
 H     -0.8786567593    -0.9462617187     5.2341534478
 F     -1.4126402527    -1.5610249059     5.6558368035
 H     -0.0881672338    -0.2399904603     3.4020372028
 F      0.0473026605     0.0105695190     4.2736773834
 H     -2.0663200256    -2.7584099930     4.7355329273
 F     -2.3520697250    -3.4002272332     4.1462055654
 H     -2.9098345652    -2.2794577137    -1.7973991368
 F     -3.3889448819    -2.4293276962    -2.5647851497
 H     -2.4586866725    -2.2823873732     0.4241759339
 F     -2.1262198536    -1.9914120995    -0.3793713295
 H     -1.3795886164     1.2815473169    -5.0910753225
 F     -0.7298362886     1.5402737243    -4.4979719936
 H     -2.7501053184    -0.2671240642    -5.7098418399
 F     -2.5699588581     0.5831819885    -6.0021017749
 H     -0.4263859652    -0.5685393053     1.1375714492
 F     -0.6325534081    -0.9121813322     1.9623709053
 H     -0.4068243958     0.0409709430    -1.1038330170
 F      0.0437394129     0.1271451197    -0.3098208851
 H     -3.0924796080    -2.0393960606    -4.1466733305
 F     -2.9085247187    -1.7588208437    -5.0000941800
          24
Energy: -94.81901019411919 Kcal/mole
 H     -2.8894401703    -2.8723980614     2.4519538187
 F     -3.4018174829    -2.7199578870     1.7068897391
 H     -1.3742653793     0.9137981428    -2.8706096633
 F     -1.4466717828     0.2251138476    -2.2694771868
 H     -0.6755081342    -0.9357913262     5.2116427569
 F     -1.1682657891    -1.6032506384     5.6022537656
 H     -0.1781398873    -0.1201710495     3.3493949626
 F      0.0583573125     0.1466351906     4.1942455439
 H     -1.7429185019    -2.6922747612     4.5042287695
 F     -1.9861082289    -3.2346380561     3.8059524538
 H     -3.1564443626    -2.0345526879    -1.8240780859
 F     -3.6357058404    -2.2075076031    -2.5864979395
 H     -2.6365348713    -2.1941221118     0.3494351346
 F     -2.2437651718    -1.8881402854    -0.4206272558
 H     -1.7633511947     1.4047636069    -4.9175605671
 F     -1.5345903995     1.9376763188    -4.2072356133
 H     -2.2455295851    -0.5915008388    -5.6849374735
 F     -2.2176730771     0.2601844645    -6.0236780219
 H     -0.6490838867    -0.5136184111     1.2214675015
 F     -0.8530265307    -0.8709433313     2.0409888858
 H     -0.4747697618     0.1680169109    -0.8891401821
 F      0.0030217385     0.2368811427    -0.1094851303
 H     -2.7881420362    -2.1163397843    -4.0645781058
 F     -2.3437478089    -2.0489091493    -4.8638627111
          24
Energy: -94.94638180990685 Kcal/mole
 H     -2.8626676990    -2.9553313595     2.5759857580
 F     -3.3008606227    -2.6765620787     1.8202320615
 H     -1.3121009185     0.8667807624    -2.9840847568
 F     -1.3756180666     0.1989090356    -2.3589432300
 H     -0.6218387689    -1.1048583029     5.3986141846
 F     -1.2321872998    -1.6747913005     5.7774809806
 H     -0.0190873560    -0.2887795891     3.4882853457
 F      0.3062817320    -0.1978018820     4.3407799283
 H     -1.7069817024    -2.7942630471     4.6064491620
 F     -1.9525115169    -3.3509974700     3.9204091540
 H     -3.0652479121    -1.8838473937    -1.8385597637
 F     -3.5199519828    -2.0550410522    -2.6162653246
 H     -2.5833037692    -2.0677208819     0.4463172083
 F     -2.2735352755    -1.7738733993    -0.3652159933
 H     -1.4490260034     1.2687697549    -5.0030053783
 F     -1.2229926269     1.8018210809    -4.2919117161
 H     -2.0800359567    -0.6573232493    -5.7443230823
 F     -1.9585881234     0.1857043238    -6.0840934970
 H     -0.7092334209    -0.2085618114     1.3075140627
 F     -0.9355337992    -0.5839350542     2.1129779461
 H     -0.5755676666     0.2897790881    -0.9083073126
 F     -0.1330878291     0.4635235151    -0.1241431286
 H     -2.7573238728    -2.0743732297    -4.0816678549
 F     -2.2964908659    -2.0461639765    -4.8739595801
          24
Energy: -94.75375862949625 Kcal/mole
 H     -3.2548880112    -2.6620585240     2.6036737079
 F     -3.6295965806    -2.4119108142     1.8049818954
 H     -0.8762252947     0.5917336668    -3.0783842213
 F     -1.0669038727     0.0142656387    -2.3920451240
 H     -0.7887288940    -1.0759924288     5.2624717373
 F     -1.5706494909    -1.3998761927     5.6154426817
 H      0.1449353842    -0.6539262792     3.3810449306
 F      0.4279090114    -0.5920212870     4.2510924570
 H     -2.2008265884    -2.5756670453     4.6396273468
 F     -2.4035026823    -3.1593930866     3.9620763821
 H     -3.2311192519    -1.8464617623    -1.8733147062
 F     -3.5740740326    -2.0735958804    -2.6928762418
 H     -2.9108865952    -1.8380660293     0.4217192862
 F     -2.6048480681    -1.5493392290    -0.3930605949
 H     -1.1712299142     1.1525843848    -5.0837950758
 F     -0.7123629082     1.5472786616    -4.3949217212
 H     -2.1328710671    -0.6696996384    -5.6884709352
 F     -2.1295222943     0.1873017883    -6.0147014371
 H     -0.5228754582    -0.2680294408     1.2294152536
 F     -0.7406995778    -0.7646171796     1.9689030971
 H     -0.5342693217     0.4501053565    -0.8805216702
 F     -0.2076470937     0.6667347564    -0.0514989785
 H     -2.5567239387    -2.1485768396    -4.0288795077
 F     -2.0759140436    -2.0943599731    -4.8078348185
          24
Energy: -95.07372524297473 Kcal/mole
 H     -3.1114594555    -2.5995885520     2.3948507732
 F     -3.6278934149    -2.3919912702     1.6660926967
 H     -1.0526458974     0.8785664333    -3.1709909808
 F     -1.4129620457     0.3951198606    -2.4800925190
 H     -1.0385723331    -0.5859286556     5.2193317993
 F     -1.5124973318    -1.2987353235     5.5482554224
 H     -0.4101096929     0.2011981632     3.3095190666
 F     -0.2125826739     0.4682326193     4.1642498289
 H     -2.0142323429    -2.3788512214     4.4019172440
 F     -2.1790643439    -2.9674867673     3.7183767510
 H     -3.2319808982    -1.5822609360    -1.8892577504
 F     -3.6410471929    -1.6992436283    -2.7015808489
 H     -2.8687837866    -1.7078327816     0.3697806884
 F     -2.5298785409    -1.3650041676    -0.4102839089
 H     -0.9771832429     1.1990646354    -5.2136085300
 F     -0.5014598281     1.5935905345    -4.5361680916
 H     -2.1201287070    -0.6052202366    -5.7584084369
 F     -1.9490854219     0.2163476213    -6.1280832259
 H     -0.7807551437    -0.0694665797     1.1590285001
 F     -0.9972103452    -0.4817602551     1.9489968988
 H     -0.7037501508     0.5840913033    -0.9540006728
 F     -0.2954312754     0.7737897491    -0.1551394861
 H     -2.7494950180    -1.9206425969    -4.0757358008
 F     -2.2600264579    -1.9663207946    -4.8498307762
          24
Energy: -94.99238749249628 Kcal/mole
 H     -2.9941427744    -2.4193389253     2.4190322731
 F     -3.5109820750    -2.1558107294     1.7088780453
 H     -0.6508379771     0.7774361387    -3.2966572061
 F     -1.0030498401     0.3244399628    -2.5813738579
 H     -1.2151002947    -0.6202637657     5.2654331273
 F     -1.6832647916    -1.3107355576     5.6461688735
 H     -0.6050962968     0.3087393220     3.4622586421
 F     -0.4076588383     0.4242214434     4.3502740303
 H     -1.9731111805    -2.3967834179     4.4673064459
 F     -2.0863725565    -2.9017494330     3.7102924537
 H     -3.1932341162    -1.4771421334    -1.8771934558
 F     -3.6204278604    -1.6244317013    -2.6751284707
 H     -2.8069923703    -1.5361262475     0.3414154697
 F     -2.4087624916    -1.2319133637    -0.4265405740
 H     -0.3092152259     0.8931512900    -5.4102411574
 F     -0.0220549178     1.3948326372    -4.6983817728
 H     -1.6289827317    -0.7095799248    -6.0237562028
 F     -1.0429797690    -0.1542845143    -6.4586545068
 H     -0.7079431267    -0.0169750511     1.1491679275
 F     -1.0877315416    -0.2009565783     1.9632935675
 H     -0.3075807132     0.3619956936    -1.0423243398
 F      0.0862929528     0.4883191943    -0.2239143518
 H     -2.9639797730    -1.5455731894    -4.1560157727
 F     -2.6385088430    -1.5578078365    -5.0132251912
          24
Energy: -94.83226383995608 Kcal/mole
 H     -3.0968554047    -2.6343473353     2.2362699895
 F     -3.4724071458    -2.4852331583     1.4130963432
 H     -0.4055549806     0.6447245966    -3.2643132546
 F     -0.9561800228     0.2866057884    -2.6244289040
 H     -1.5119585639    -0.2197040573     5.0664994539
 F     -2.0744990271    -0.8678951005     5.3894322625
 H     -0.6912313322     0.5646761036     3.3436917272
 F     -0.5352841828     0.7761734781     4.2222350370
 H     -2.2598519459    -2.1921886211     4.3961155746
 F     -2.3565655221    -2.8174208011     3.7323232838
 H     -2.7560260718    -1.7523509281    -2.0587004567
 F     -3.0081454196    -2.0134215749    -2.9008209658
 H     -2.6967438529    -1.6779819447     0.1460977458
 F     -2.3239374030    -1.2389265701    -0.5674390289
 H     -0.1518252061     0.8060838221    -5.2779864653
 F      0.4269216653     1.0578859932    -4.6127521265
 H     -2.0724209018    -0.1019485287    -5.9100984211
 F     -1.3420849015     0.2842957594    -6.3079849332
 H     -0.7663557386     0.1163569507     1.1150910173
 F     -1.1904268698    -0.1242621384     1.8917216436
 H     -0.3355681729     0.3938688721    -1.0646971231
 F      0.0870314059     0.5090094477    -0.2590661630
 H     -3.2155738063    -1.0929575412    -4.2679013380
 F     -3.3354992275    -0.5835655610    -5.0209130935
          24
Energy: -95.00029626952444 Kcal/mole
 H     -3.2411944692    -2.5102966999     2.2521060698
 F     -3.6787039049    -2.3513109181     1.4620440375
 H     -0.5114087370     0.7338035516    -3.2170761466
 F     -1.0269414791     0.2774265992    -2.6114070380
 H     -1.7444876681    -0.2680638976     5.1063710571
 F     -2.3136982815    -0.9197412209     5.4100237269
 H     -0.8277430239     0.3628037555     3.3092858206
 F     -0.7302991182     0.6718203849     4.1671333642
 H     -2.4469434346    -2.2079285492     4.3394764185
 F     -2.4857906294    -2.8203861366     3.6580986972
 H     -3.0581368800    -1.7346067633    -1.9773319105
 F     -3.3198695137    -1.9930738845    -2.8173198722
 H     -2.8991035005    -1.5776916916     0.2129954123
 F     -2.5328803343    -1.1886656409    -0.5322752260
 H     -0.2487760447     1.2403280405    -5.1465889797
 F      0.2987147424     1.4468160032    -4.4405397185
 H     -2.1894488173     0.2863620098    -5.7034760899
 F     -1.4552060109     0.6532585390    -6.1123323460
 H     -0.7912545506    -0.0313976731     1.0671373715
 F     -1.1920819374    -0.3322699764     1.8350581117
 H     -0.5019608666     0.4577373495    -1.0577583042