          2
Energy: -0.23390000012890058 Kcal/mole
 Ar    -4.4518709570     3.4539960172     7.0890259645
 Ar    -6.7772069448     2.7701518756     4.1397221264
