          2
Energy: -0.23390000009964507 Kcal/mole
 Ar    -3.5144451869     6.2147687666     2.4944715119
 Ar    -5.6036243582     3.0211353947     2.5911965085
