          2
Energy: -0.23390000011212478 Kcal/mole
 Ar     4.1006348200    -6.5379132330     5.5673986033
 Ar     6.0493185735    -4.4877480827     3.0036585477
