          2
Energy: -0.005308007434808775 Kcal/mole
 Ar    -2.6665783256     2.1035456937     3.0982695812
 Ar    -4.2409727802    -2.0783010102    -3.5922660384
