          2
Energy: -0.2338999998779776 Kcal/mole
 Ar    -3.6650703743     5.1551631248    -6.8628552335
 Ar    -2.5483788331     2.3770753348    -4.4946656572
