          2
Energy: -0.050832706051571044 Kcal/mole
 Ar     2.6726407959     3.2467340941     3.2678406420
 Ar     1.3646930474    -1.7163547675     1.3710111888
          2
Energy: -0.007099896365517971 Kcal/mole
 Ar    -3.2366110269    -4.8875543832    -0.1069256114
 Ar    -4.5634715019     0.3225460007    -5.5662892674
          2
Energy: -0.013575521559939503 Kcal/mole
 Ar     2.1655739915     0.0930410235     0.2962434227
 Ar     4.9287164055     6.3719641253    -0.0635503146
          2
Energy: -0.0197311376811577 Kcal/mole
 Ar    -5.0255724457     6.8664235072     0.2642678081
 Ar     0.6441233190     3.9269631749     1.1457075478
          2
Energy: -0.0014881694128372133 Kcal/mole
 Ar     1.8329604706     3.2789125239     4.2403984267
 Ar     5.9921394399     4.9823802634    -4.6385585729
          2
Energy: -0.05714890841031715 Kcal/mole
 Ar    -2.0466779258    -7.2379338339    -4.4050659601
 Ar     3.1568649518    -5.9577055182    -4.3949688170
          2
Energy: -0.19886385329297135 Kcal/mole
 Ar     3.2076517450     4.3618161702     1.8482772212
 Ar    -0.7100541460     4.4845200789     3.1870379174
          2
Energy: -0.23389495952617068 Kcal/mole
 Ar    -6.1437194166     1.5588670103    -2.5012579189
 Ar    -5.3575896390     1.4011823483     1.2341152111
          2
Energy: -0.2262479520287506 Kcal/mole
 Ar     4.7364062503    -5.4436930260     6.4148885508
 Ar     6.3503338387    -3.8584338906     3.4704366090
          2
Energy: -0.23390000011212478 Kcal/mole
 Ar     4.1006348200    -6.5379132330     5.5673986033
 Ar     6.0493185735    -4.4877480827     3.0036585477
