          2
Energy: -0.0689999999643308 Kcal/mole
 Ne     2.4537997736    -0.9147564386    -3.2006557286
 Ne     0.2771344610    -0.9394480430    -5.4364356323
