          2
Energy: -1.4859651253637459E-5 Kcal/mole
 Ne    -2.3224606158    -7.0639137430    -3.3033398895
 Ne    -6.5594063649     5.7701552544     1.3873251370
          2
Energy: -1.0678547469434536E-4 Kcal/mole
 Ne    -0.1235213075    -6.7303639345    -5.9106448289
 Ne    -4.0234591323     2.7158009638    -7.1785753708
          2
Energy: -0.00718601724439717 Kcal/mole
 Ne    -5.5316333560    -1.2838328066    -5.7190775748
 Ne    -5.3389330132    -1.7330272609    -0.6592557194
          2
Energy: -0.061612653511633156 Kcal/mole
 Ne    -2.3582591983     5.5500605922    -6.1497995592
 Ne    -2.6912294740     2.8501081832    -4.2232165442
          2
Energy: -1.5608168181083503E-4 Kcal/mole
 Ne     5.3172626063    -2.5285512036    -0.6026764365
 Ne     0.7598285001     3.3771592995     5.5447669312
          2
Energy: -8.523243104985653E-5 Kcal/mole
 Ne     3.4329076228     1.7326324146    -3.7689945255
 Ne    -6.1700162331     3.6730252235     0.5141188991
          2
Energy: -9.77041942361643E-6 Kcal/mole
 Ne     6.2694484717     4.5335947816    -5.0354108526
 Ne    -6.0135300088    -4.5509341835    -6.4386364390
          2
Energy: -9.964632420088139E-5 Kcal/mole
 Ne    -2.3206589172     4.9334756537     4.6649641087
 Ne    -7.2246175161    -4.1625708947     3.3475218219
          2
Energy: -8.104980414109193E-5 Kcal/mole
 Ne    -5.4340007107    -1.9653586631     3.4477476047
 Ne     4.9935449970    -0.9063222807     5.9786343157
          2
Energy: -0.06899999993517536 Kcal/mole
 Ne    -2.0111806261    -0.0892625657     5.4083469594
 Ne    -0.5287513570    -2.7342293182     4.6710148253
