          2
Energy: -0.06899999995895187 Kcal/mole
 Ne    -0.2598021129    -2.6093642117     4.1465991256
 Ne     1.3380192924    -5.2846325223     4.3110540051
