          2
Energy: -0.06899999995813774 Kcal/mole
 Ne    -1.1272868216    -2.9238221737     4.6790574807
 Ne    -3.6182343396    -1.4844081090     3.4705551581
