          2
Energy: -1.2813466578187943E-4 Kcal/mole
 Ne    -4.6312788108     3.3856636980    -1.6754405816
 Ne     1.6559275120    -3.7023365071     1.4907867767
