          2
Energy: -0.06899999993517536 Kcal/mole
 Ne    -2.0111806261    -0.0892625657     5.4083469594
 Ne    -0.5287513570    -2.7342293182     4.6710148253
