          3
Energy: -1.2989982367373145 Kcal/mole
 Xe    -3.3224507988     3.6560607279     1.4433278743
 Xe    -3.8374990494     4.5846491937    -2.8438664742
 Xe    -0.0578303181     5.6087132608    -0.8031816234
