          3
Energy: -1.2989903098394011 Kcal/mole
 Xe    -4.3253086808    -1.5184740087     3.4536690498
 Xe    -3.7587796476    -3.5426340326    -0.4349484380
 Xe    -0.4152145166    -3.3059553004     2.4420164361
