          3
Energy: -1.2989982233511903 Kcal/mole
 Xe     6.7094240587    -0.8975538484     0.9325010941
 Xe     3.1113209356    -3.1153160570     2.2163466134
 Xe     3.1121033830     1.3018101186     2.2435436903
