          3
Energy: -0.26021936840341364 Kcal/mole
 Xe    -1.0167529233     4.4742047879     1.8269285740
 Xe    -2.2974429941     0.4008272287    -6.7643331124
 Xe    -7.4244512372     1.2751120652    -5.8915348055
          3
Energy: -0.20882957931346108 Kcal/mole
 Xe    -7.2399224470    -3.8569765381     4.1320583269
 Xe    -4.7999654915    -3.3346654536    -6.5752450348
 Xe    -4.7975246431    -0.4207457966     0.3161732831
          3
Energy: -0.5807329490668951 Kcal/mole
 Xe    -3.4927544337     1.9341542324    -0.1827493933
 Xe    -0.7026519916     6.2395187868    -0.4178480309
 Xe     3.3493767907     6.9521821932     2.5940565475
          3
Energy: -0.4340322015176132 Kcal/mole
 Xe     6.7156188358    -6.7837278615     0.9179498353
 Xe    -4.9377196660     1.2931577929     1.1255244709
 Xe    -6.7694554612     0.6558097856    -2.8270152723
          3
Energy: -0.3892510852748434 Kcal/mole
 Xe    -1.2151922801     4.5735385278     2.1786872665
 Xe    -4.8407217901     3.0463080483     5.1898758060
 Xe    -7.4503720844     1.3876144794    -1.5407514391
          3
Energy: -1.1458876140659662 Kcal/mole
 Xe     3.8190000687     1.2989974516     3.7810304715
 Xe    -0.5076371273     0.8436451653     4.3586390280
 Xe     2.1898653587    -0.8633833280     0.3507990600
          3
Energy: -1.1120115683194618 Kcal/mole
 Xe     1.4265604265     0.1780522681     1.7147108575
 Xe    -1.5674716616    -1.0803122023     4.8450852466
 Xe     2.0087882403     0.2738641120     6.9154369758
          3
Energy: -1.258065911525006 Kcal/mole
 Xe     2.2324217694    -3.2749750093     3.7685964873
 Xe     6.4291703733    -3.7773140217     3.9258858118
 Xe     4.0768956937    -6.8752670212     1.8470644405
          3
Energy: -1.214026215379881 Kcal/mole
 Xe     6.5970625931    -0.8453825254     0.5995301438
 Xe     2.7882055971    -3.3514103622     1.6279588618
 Xe     3.1786139164     1.3009079335     2.3857945773
          3
Energy: -1.2989982233511903 Kcal/mole
 Xe     6.7094240587    -0.8975538484     0.9325010941
 Xe     3.1113209356    -3.1153160570     2.2163466134
 Xe     3.1121033830     1.3018101186     2.2435436903
