          3
Energy: -1.2989916556372059 Kcal/mole
 Xe    -0.5121070083     1.9387551135    -1.0159655640
 Xe    -4.7112708540     3.2894749661    -1.2684048221
 Xe    -1.4675040947     6.2447979044    -0.7473827301
