          3
Energy: -0.011540617845049003 Kcal/mole
 Xe     2.7455587521    -4.6815013919     3.4081011546
 Xe     4.1686223252     4.3193534916    -4.5960333050
 Xe    -3.1652905712     3.8960593851     3.0442237629
