          6
Energy: -5.325813866930937 Kcal/mole
 Xe    -5.4666915322     7.3288073616    -1.8275363055
 Xe    -5.8592446023     7.7822316032    -6.1821743657
 Xe    -5.2825101322     3.0877265527    -0.6902894721
 Xe    -9.4232186671     8.1469835305    -3.6143564578
 Xe    -7.5712389868     4.2035346309    -4.2655846914
 Xe    -9.0498018937     5.3215336994    -0.2578700260
