          6
Energy: -0.6674103156991223 Kcal/mole
 Xe    -1.8393133921    -0.0148357186     8.2845697893
 Xe    -3.8641149999     3.3646551868     5.4109452887
 Xe     0.6829231428    -7.7139771571     8.0368077391
 Xe    -3.3126828581    -8.5730506764     4.8723101656
 Xe     8.2762168011     1.8615695643     8.4057086275
 Xe    -3.7022168230     1.1293742091    -6.0885469884
          6
Energy: -0.605643833592817 Kcal/mole
 Xe    -3.6369715512    -0.7828690469     3.4214048423
 Xe     1.9441380369     2.3599784647     0.7900870354
 Xe     8.3419299051    -2.5676909092    -1.5935490534
 Xe     4.3135323241    -5.4523400099     2.5522270386
 Xe    -1.1238897882     1.2331353989     7.2249557605
 Xe     0.2420285658     8.7361419651     7.2124208647
          6
Energy: -1.6350280048696053 Kcal/mole
 Xe    -7.2343657388     5.9185701295     2.1999235257
 Xe    -0.0201517563     4.9463074058     2.9468665907
 Xe    -4.1138778400     3.2615677641     4.4232204019
 Xe     1.5349075046    -1.1235362362     3.7776340507
 Xe     2.1769247600     7.9548896313    -3.7122332275
 Xe    -3.7405315129    -1.6249623194     3.5333160157
          6
Energy: -2.8939716964903823 Kcal/mole
 Xe    -5.4217983615     5.1942169114     3.5639347016
 Xe    -7.6297460360     0.8171088926     0.9255961812
 Xe    -5.2850319023     9.4940879161     2.3466186232
 Xe    -4.8376215993     3.3920244457    -0.6034588266
 Xe    -8.6963427605     6.8572174648     0.1137798406
 Xe    -0.1297248379     4.6132233823     1.7827400526
          6
Energy: -3.709827181655565 Kcal/mole
 Xe    -1.6694928496    -1.2883839162    -0.3559527023
 Xe    -3.4873119147    -4.3331051689    -2.8113920894
 Xe    -1.4201484176    -0.3318813086    -4.4280084455
 Xe    -1.6680345725    -5.4183620540    -6.1510507619
 Xe     1.0764020032    -5.0057293588    -2.2015141278
 Xe    -6.2018176230    -1.4559717637    -4.3820252776
          6
Energy: -4.218904679663642 Kcal/mole
 Xe     1.7619862558     5.3312744166    -0.3487583507
 Xe    -4.9261760256     1.3218812089     0.1284906162
 Xe    -0.5018574435     5.9673451583    -5.1404648736
 Xe    -1.8714848594     3.4841805728     2.1935511255
 Xe    -0.5243051479     1.9772230327    -2.3173960246
 Xe    -3.4008196158     5.7309536120    -1.5978781633
          6
Energy: -4.5250034269777615 Kcal/mole
 Xe    -5.0970677696     4.4545178923    -1.3368721783
 Xe    -9.0103845239     2.8308781456     0.0817490733
 Xe    -2.6250554740     6.4180499521     1.8771984440
 Xe    -7.4551745504     6.8684078741     1.4517929693
 Xe    -7.0267693828    -0.4388605395    -2.0714416142
 Xe    -5.5299245738     2.6355263574     2.6962507660
          6
Energy: -4.9291531504152655 Kcal/mole
 Xe    -4.6406824908     6.7644433370    -2.3842755252
 Xe    -5.3541781877     5.9793058058    -6.6878212819
 Xe    -1.0843497869     4.5940238070    -0.9604566816
 Xe    -7.9642743458     4.5099846765    -3.6962254498
 Xe    -2.7014686852     3.1728502232    -4.7006568449
 Xe    -5.2000074640     2.7235566813    -0.7777194861
          6
Energy: -5.141103697170572 Kcal/mole
 Xe    -5.3890158543     7.1284409165    -1.9661279586
 Xe    -5.9851641368     7.7150705384    -6.1169182140
 Xe    -5.2029430505     3.0261127749    -0.9531333482
 Xe    -9.4509787996     8.1092310024    -3.7255010670
 Xe    -7.6289167267     4.0477283355    -4.2049208683
 Xe    -9.0816341189     5.3261006345    -0.2984431294
          6
Energy: -5.325813866930937 Kcal/mole
 Xe    -5.4666915322     7.3288073616    -1.8275363055
 Xe    -5.8592446023     7.7822316032    -6.1821743657
 Xe    -5.2825101322     3.0877265527    -0.6902894721
 Xe    -9.4232186671     8.1469835305    -3.6143564578
 Xe    -7.5712389868     4.2035346309    -4.2655846914
 Xe    -9.0498018937     5.3215336994    -0.2578700260
