          6
Energy: -0.10185899190180386 Kcal/mole
 Xe     2.0194588018    -1.2753141684    -0.2952261110
 Xe    -1.4891660645    -6.2273015392     5.1940702677
 Xe    -6.3182538774     5.7338400564     1.6777418175
 Xe     4.5597339650     6.2625099742    -2.3901343366
 Xe     6.1155834747     4.6297012898     6.3739190439
 Xe    -3.4478712361     6.2621280911    -6.4536108587
