          6
Energy: -1.5924143814552232 Kcal/mole
 Xe    -1.0729685094     5.4871611065    -2.5709417193
 Xe    -5.3948073968    -1.6052346952    -9.5397365474
 Xe    -2.9928194420     0.8737625936    -6.9442572253
 Xe    -1.2989570142     9.5135513549    -7.0079452836
 Xe    -0.3444881639     3.7145767459    -9.3742489338
 Xe    -5.7077605039     3.8660883384    -1.0635575528
          6
Energy: -1.5499130468283984 Kcal/mole
 Xe     2.6954379406     9.3710736153     7.1477626266
 Xe    -0.3196046030    -6.4296585771    -7.8098560449
 Xe    -3.4144747000     8.5596876618     7.0130603055
 Xe    -2.5631436340     4.5000122251     1.7416859987
 Xe    -5.9111123677     7.9599606367     2.6240787813
 Xe    -5.6200576709     4.3810504094     6.8413258489
          6
Energy: -1.3674648684141972 Kcal/mole
 Xe    -8.5838457490    -2.9754722891    -5.5220375810
 Xe    -0.9255948836     1.5785250948     1.3234816762
 Xe     3.1192996874     5.5024337490    -3.0063001837
 Xe    -1.4248470834     0.9335833645     7.0756290673
 Xe    -0.9218453497     4.9883155421     7.7059362130
 Xe     2.7037593851     4.2431551466     2.0497451196
          6
Energy: -1.7200589441125747 Kcal/mole
 Xe    -3.2309663652     1.8811147088    -8.4332446874
 Xe    -9.5162178540     2.4754924873    -6.7605363532
 Xe    -5.8128299121     4.0143041400    -4.3264175628
 Xe    -1.2297476072    -1.5539783463    -3.7860596692
 Xe    -4.1723167431     0.9350187714     2.5664572023
 Xe    -8.1336856727     6.1478597863    -8.4018233337
          6
Energy: -3.1284431105619133 Kcal/mole
 Xe    -6.9153107819    -1.7640420643    -2.7630888210
 Xe    -5.5782018792     2.6368742062    -2.3962400519
 Xe    -8.6493510827     0.5717173627     0.3143674066
 Xe    -4.2654866921     6.3927310517    -0.5855972365
 Xe    -8.5808818264     5.3487670895     2.6708056640
 Xe    -8.8508748622     7.4797783751    -0.8536171192
          6
Energy: -4.607385756692675 Kcal/mole
 Xe    -5.3358831456     6.0354225773     0.6463530536
 Xe    -9.1327458637     1.7132857373     0.1177871546
 Xe    -1.7306626360     1.3509996334     0.5994814255
 Xe    -5.8768689943     2.3016989548     2.5830865346
 Xe    -5.2673837625     2.1226418792    -1.7660706674
 Xe    -5.9028047317    -1.4259601918     0.9162436726
          6
Energy: -4.913789537858888 Kcal/mole
 Xe    -7.8484652125     1.6004735525     2.8527541594
 Xe    -3.8142191048    -2.0452659892     0.6780128181
 Xe    -6.4824764436     1.1624899782    -0.9644714949
 Xe    -3.8007378621     2.2225500986     2.3783117927
 Xe    -4.8538740422    -0.9384914930     5.0152943975
 Xe    -8.0450994126    -2.4111824637     0.9545812880
          6
Energy: -4.549587921586642 Kcal/mole
 Xe    -6.8291077820     0.8611897214     1.6686039040
 Xe    -3.1798992278    -0.1033496139    -0.2106724170
 Xe    -4.8720539361     3.4828011785    -2.0687732951
 Xe    -3.2607493181     2.8663665806     2.9826090920
 Xe    -6.5133243263    -2.7272442621    -0.8278691390
 Xe    -8.0018749022     0.5139985605    -3.0480203422
          6
Energy: -5.0860084689379175 Kcal/mole
 Xe    -7.1114350846     1.5904789462    -1.9749855099
 Xe    -3.5756045998    -2.3930976549    -5.8591699274
 Xe    -2.9034503798     1.0062551218    -2.9713297312
 Xe    -4.0221882203    -2.8868714421    -1.4517512614
 Xe    -7.4762901521    -1.9901946316    -4.2145012698
 Xe    -5.7567890296     1.5139706468    -6.5693848324
          6
Energy: -5.50188684218665 Kcal/mole
 Xe    -6.5281743649     1.2964566263    -1.6667354660
 Xe    -3.3436613065    -2.3620701400    -5.5930067463
 Xe    -2.3953245855     1.1721441199    -3.1237475121
 Xe    -4.1193313294    -2.4044283974    -1.2497550865
 Xe    -7.4637042592    -2.2342929167    -4.0971383358
 Xe    -5.7192049407     1.3291186881    -6.0086957390
