          2
Energy: -0.4329999997256915 Kcal/mole
 Xe    -0.3706391594     6.3927333404     5.3395717087
 Xe    -2.0578284053     6.6303477619     1.2645617691
