          2
Energy: -0.4329999998695958 Kcal/mole
 Xe    -1.0109042580    -5.6371818406    -3.0087333027
 Xe    -0.7811058454    -7.1544231216     1.1330087801
