          2
Energy: -0.4329999997997114 Kcal/mole
 Xe     2.7751302377     4.6568781631    -1.3957576423
 Xe    -1.2061056566     2.7854040440    -1.0003584359
