          2
Energy: -0.4329999998894362 Kcal/mole
 Xe     4.1891137648    -6.3742892003     2.4063780401
 Xe     6.7649845732    -5.9888849682    -1.1608679914
