          2
Energy: -0.0067315994623448824 Kcal/mole
 Xe    -2.2952491403    -3.3307047745     6.0638810267
 Xe    -2.9835048100     1.9428490269    -2.3070062563
          2
Energy: -0.01933973478189216 Kcal/mole
 Xe    -3.0957672678    -1.2584446472     2.7405853027
 Xe     5.2011799849    -1.5177566861     3.0700740128
          2
Energy: -4.764069002979864E-4 Kcal/mole
 Xe    -2.7599360182    -6.5264906987    -7.4427355678
 Xe    -0.4478544367     2.4559775655     4.8877311334
          2
Energy: -0.41319398969734866 Kcal/mole
 Xe     1.8365974608     1.3594173845     2.7898677823
 Xe     4.6514509979     0.5504745085     6.3339377966
          2
Energy: -6.226406180966176E-4 Kcal/mole
 Xe     5.2521030362    -4.8110113867    -7.3028147799
 Xe     0.2396175589     5.8209139309     1.6178628464
          2
Energy: -0.419879655163237 Kcal/mole
 Xe     1.4096626286     3.0700355987     5.6491517319
 Xe     3.5199537297     1.8702126633     2.0995270474
          2
Energy: -0.43077911948792097 Kcal/mole
 Xe    -1.9512005779     5.3236348620     4.0944546496
 Xe     2.3212868996     5.0496178487     3.2371286791
          2
Energy: -0.4243542373511541 Kcal/mole
 Xe    -3.0501927283     4.5046270354    -5.0322572652
 Xe     0.7240740689     4.7239443626    -7.1238732207
          2
Energy: -0.4171391644393342 Kcal/mole
 Xe     3.0345546841     4.3342439010    -1.7475966117
 Xe    -1.2061056566     2.7854040440    -1.0003584359
          2
Energy: -0.4329999997997114 Kcal/mole
 Xe     2.7751302377     4.6568781631    -1.3957576423
 Xe    -1.2061056566     2.7854040440    -1.0003584359
