          2
Energy: -0.01851346093039335 Kcal/mole
 Xe     4.0175588907    -2.0085104918    -2.5041461704
 Xe    -0.3576625508     4.8188752054    -4.5736213459
