          2
Energy: -0.42922260370927545 Kcal/mole
 Xe    -1.8561003181    -2.5224888271    -2.8393766457
 Xe    -3.5574774958    -5.4634893126    -5.7741539949
          2
Energy: -0.1492631812175181 Kcal/mole
 Xe     2.7594962810    -2.2061054815     0.5945897510
 Xe    -1.5212773927    -2.1194854478     4.5407859349
          2
Energy: -0.02188882961023166 Kcal/mole
 Xe    -2.3105302486     0.7594484911    -3.6502733520
 Xe     3.0329479547    -3.0223566247     1.1804881862
          2
Energy: -0.3671531401305076 Kcal/mole
 Xe    -4.7941295165     0.3883717087     2.9590686560
 Xe    -7.2353438831     0.6306132523     7.0803058241
          2
Energy: -0.41427281053966003 Kcal/mole
 Xe     6.8689438604     1.9720706550     4.4779311699
 Xe     5.7640801267    -1.6636880974     6.4473647274
          2
Energy: -0.35387443482166847 Kcal/mole
 Xe    -3.7114456574    -0.9700317048    -5.2740201331
 Xe    -4.2603439466    -5.1642047514    -2.9071086839
          2
Energy: -0.008324080518995405 Kcal/mole
 Xe     4.9926244266     0.5371970670    -3.6479457942
 Xe     2.9271881272     1.8187906389     5.6093702479
          2
Energy: -0.4067990486500406 Kcal/mole
 Xe     2.6422911974    -1.5652919520     1.2787050876
 Xe     5.8030964802    -4.9330884512     1.5971900018
          2
Energy: -0.4266773838454733 Kcal/mole
 Xe    -1.0909977555     5.8504123540     5.5427128881
 Xe    -2.2078019839     6.2548017845     1.1891111040
          2
Energy: -0.4329999997256915 Kcal/mole
 Xe    -0.3706391594     6.3927333404     5.3395717087
 Xe    -2.0578284053     6.6303477619     1.2645617691
