          30
Energy: -122.27471757073867 Kcal/mole
 H      1.3377299720     4.8399658390     2.2264181860
 F      0.8301134768     5.3853184997     1.6918108821
 H      2.2023344153     2.5965706376     0.0425325842
 F      1.8646049625     3.3823210739    -0.2882605059
 H     -1.5927158293     3.7121321359     1.0144347972
 F     -2.0010700638     3.7952372115     1.8312758867
 H      4.0716102198     1.3938728677     3.3699816578
 F      4.4766274539     1.5202338160     2.5570345803
 H     -1.0402440945     3.8035966783     3.1734852731
 F     -0.4391014824     3.7177653082     3.8606166549
 H      4.6040984955     3.9302412841    -0.4728673869
 F      4.8624080049     3.2442756406     0.0781465269
 H      0.2031894077     3.4320867745    -0.4050910173
 F     -0.7133471923     3.4475036434    -0.3803527657
 H      1.6591984881     6.1682643927     0.4800955746
 F      2.1911026783     6.5353329679    -0.1704638720
 H      3.4370502962     5.7468891016    -0.9569771020
 F      4.1601338113     5.2892566251    -1.2865400650
 H      2.2468697003     1.3061679505     4.6376937739
 F      3.1579838894     1.2630145780     4.7320215053
 H      3.2329510459     4.0158803942     3.3059000999
 F      2.4404518755     3.7599975650     2.9220276698
 H      5.4016703046     4.2797747000     3.2548886380
 F      4.7158064836     4.4492477911     3.8394899469
 H      3.3645730078     1.2930184830     1.3465763106
 F      2.6529003866     1.1995246546     0.7759012856
 H      5.9642714302     3.6497203475     1.2731042869
 F      6.4208982925     3.9990402379     1.9874967020
 H      0.2256146322     2.2393973531     4.2114530254
 F      0.6227238494     1.4238525695     4.3459148254
