          3
Energy: -0.7016995979907237 Kcal/mole
 Ar     1.3017775399    -1.5195402052     3.4310825399
 Ar    -0.5345902577     1.0057790054     1.2340066161
 Ar    -0.1322172377    -2.6051973963     0.0643649287
