          3
Energy: -0.0352345632713843 Kcal/mole
 Ar     5.6682097971    -5.2404838874     4.8483445196
 Ar    -1.1456841076     3.0337798534    -4.1531776166
 Ar     3.5215495233     5.6278147339    -1.7634609525
          3
Energy: -0.0017182893868294934 Kcal/mole
 Ar    -0.9860992273    -4.3653870788    -4.1614272843
 Ar     3.6860533713    -5.7610169479     4.6431485691
 Ar    -5.9748467122     4.8239951897     5.7232482919
          3
Energy: -0.016579366787614205 Kcal/mole
 Ar     1.7059610312    -2.3611483074     0.4568384472
 Ar    -3.1931561071     0.2836279686     6.5893893457
 Ar    -2.3818291310    -3.6520213064    -5.1307538297
          3
Energy: -0.12109294187108822 Kcal/mole
 Ar    -2.0080192462    -4.2551527241    -2.9217086111
 Ar    -6.4841334072    -3.7132094050    -4.4048257943
 Ar     3.6752468025    -3.5528676135    -7.2321731372
          3
Energy: -0.0272905466117093 Kcal/mole
 Ar     6.9680540318    -2.4516610475     5.4609491499
 Ar    -5.0529746729     4.9145754710    -3.0175898490
 Ar     3.7292644447     2.6861752426     4.6960410576
          3
Energy: -0.6397610150621866 Kcal/mole
 Ar    -2.6273196419    -2.7566613204    -4.1939091916
 Ar    -5.2518145986    -0.9729237638    -6.1805197299
 Ar    -6.1263042024    -4.3918513660    -5.4203661641
          3
Energy: -0.4818293151112176 Kcal/mole
 Ar     4.4876694617     1.1944458773    -4.1363751760
 Ar     1.9544778759     1.3410925855    -7.4277866696
 Ar     6.9388213984     0.0916570504    -6.6375177659
          3
Energy: -0.6986435512192342 Kcal/mole
 Ar    -4.6563263019    -2.7269388389    -2.3168904549
 Ar    -1.6621113026    -3.7507768259    -0.1047530859
 Ar    -4.5172026030    -6.1525696181    -0.5977584927
          3
Energy: -0.6411802814142902 Kcal/mole
 Ar    -5.3232993046    -1.3866671850    -7.1016488612
 Ar    -3.2363701515     0.4562639107    -4.3891680458
 Ar    -2.9766832353    -3.6817663875    -4.7401451733
          3
Energy: -0.7016924027071534 Kcal/mole
 Ar    -5.5391028357    -1.3700370639    -6.9071311809
 Ar    -3.3317302076     0.3616364757    -4.3225075201
 Ar    -2.7250038053    -3.3039589342    -5.2042948074
