          3
Energy: -0.7016990949852392 Kcal/mole
 Ar    -6.6668869186    -6.8393755243    -2.5417797648
 Ar    -4.4353882751    -4.2267156211    -0.8787833633
 Ar    -2.8710449568    -7.1155913681    -2.8233275374
