          3
Energy: -0.701697330977221 Kcal/mole
 Ar    -3.9643201269     2.7290523654    -5.3759666421
 Ar    -2.3586659443     5.9939909595    -4.2183607128
 Ar    -2.2527667068     2.9132706302    -1.9695949146
