          3
Energy: -0.006439652026550621 Kcal/mole
 Ar     4.1286273154    -1.6672494065    -3.3673030110
 Ar     2.6335992496     4.5873184081     3.1808325832
 Ar    -2.1972620215    -3.2222047563     3.9158158449
