          3
Energy: -0.2544076184412854 Kcal/mole
 Ar     0.0486110497    -0.0135729816     2.6013246624
 Ar    -1.4162925282     0.6702802630    -3.8408591561
 Ar    -5.1608649343     1.5048556675    -3.3508114160
          3
Energy: -0.0229445147675638 Kcal/mole
 Ar     0.2010688482     3.3954111477     2.2468719100
 Ar    -0.5200974212     4.6760932637    -3.9074363863
 Ar    -2.3706060419    -7.4420353287     3.1134072671
          3
Energy: -0.0441308788073247 Kcal/mole
 Ar     0.7376718919     2.7504790533     2.7252001385
 Ar    -4.8512577585     6.6209311400    -4.2956646301
 Ar     6.0765646219     1.7532002655     4.2873380542
          3
Energy: -0.05336191859409762 Kcal/mole
 Ar     7.4979727258     1.0622898931     6.7945265010
 Ar     3.5112847354     4.6284829363    -6.1468206419
 Ar     7.3001230262     0.7492188547    -6.4848008013
          3
Energy: -0.20735103470985353 Kcal/mole
 Ar    -5.4770952762     0.4109928522     1.8023096175
 Ar     1.2739544022     4.2274839538    -4.3454683095
 Ar     3.8856583598     3.5338935815    -1.2544602723
          3
Energy: -0.4990701670157744 Kcal/mole
 Ar    -4.5899293689    -0.3823108057    -4.4084801968
 Ar    -1.6207313951    -2.3118899555    -5.2194503225
 Ar     0.0709682977     1.3163765030    -4.3561639215
          3
Energy: -0.2275282231458932 Kcal/mole
 Ar    -1.1602165108    -5.2135841700    -1.9459021345
 Ar     2.0434985010    -4.9713865165    -0.0935763601
 Ar    -2.9801807783     2.7009729136     5.0216648267
          3
Energy: -0.62528529116336 Kcal/mole
 Ar    -1.1091119689     7.4469878227    -4.9529866004
 Ar    -2.3167512823     4.5992489189    -7.3803085936
 Ar    -4.1022745825     4.9336986317    -4.3144282042
          3
Energy: -0.6558717319184778 Kcal/mole
 Ar    -3.9001758327     2.4373250132    -5.1441755359
 Ar    -2.6380350758     5.9624365841    -4.1438267979
 Ar    -1.6929570148     2.7156274864    -2.3194947106
          3
Energy: -0.701697330977221 Kcal/mole
 Ar    -3.9643201269     2.7290523654    -5.3759666421
 Ar    -2.3586659443     5.9939909595    -4.2183607128
 Ar    -2.2527667068     2.9132706302    -1.9695949146
