          3
Energy: -0.7016924027071534 Kcal/mole
 Ar    -5.5391028357    -1.3700370639    -6.9071311809
 Ar    -3.3317302076     0.3616364757    -4.3225075201
 Ar    -2.7250038053    -3.3039589342    -5.2042948074
