          5
Energy: -0.9156584161992931 Kcal/mole
 Xe    -0.8519878862    -0.6222131428     0.4605773415
 Xe     8.5930248554     8.2622510807     7.5163510606
 Xe    -6.5970657949    -0.3713058361    -4.1605265189
 Xe    -2.2936359809    -1.1958184008    -3.6694801203
 Xe     7.1687471409    -3.6108658768    -6.6685934658
          5
Energy: -0.4279268793903405 Kcal/mole
 Xe     0.6496742232     7.5768426757    -5.3872899649
 Xe    -8.9147850134    -0.9569012663    -0.8510542307
 Xe    -5.0056760533     3.5748778867    -1.3398365075
 Xe     5.8404949401    -3.9086724100    -3.4077426484
 Xe     3.8977059008     1.0876210337    -3.6175281285
          5
Energy: -1.063577935605258 Kcal/mole
 Xe     6.0715413232     1.1775433345    -2.6860545371
 Xe     2.6442790699     3.1654208213    -5.3035170888
 Xe     8.1366529938     7.6360451514    -0.9632239454
 Xe     3.4796089847     4.1837157776     0.3177268534
 Xe    -5.7398945574    -0.7906514600     8.9065056694
          5
Energy: -1.0452250293630754 Kcal/mole
 Xe     7.7108662332     4.9178051687    -0.2736924185
 Xe     4.0124316039     3.9392128880    -2.4423018553
 Xe    -3.5160447337    -0.2030864931    -3.6881305326
 Xe     1.8586192199     4.9245194708     1.9409723772
 Xe     1.1140519951    -0.4306246675    -7.5840260002
          5
Energy: -1.1440419165245308 Kcal/mole
 Xe     0.2748446390     4.9114989840     2.9797214189
 Xe    -8.9266458066    -3.7277798516    -4.8808122945
 Xe    -3.0541877143     8.4084723540     2.6637686982
 Xe    -0.1580989898    -0.7400459582    -3.9093610007
 Xe    -3.9122107945     4.5111684737     5.2156564069
          5
Energy: -2.3412933790753945 Kcal/mole
 Xe     5.3220654878     1.1525361450     4.4367957211
 Xe     2.8589347000     0.1393187779     7.6193931864
 Xe    -1.3458067387     2.4792273007     8.4072150343
 Xe     1.8892386237     3.4711983048     5.2175005180
 Xe     5.5486587915    -2.7549180351     1.6803111597
          5
Energy: -2.443900343565043 Kcal/mole
 Xe     6.8008210558    -0.7580883416     5.5975469858
 Xe     1.9283964637    -1.9950224156     5.2950965454
 Xe     5.1629063484    -4.2372101405     3.2151561295
 Xe    -1.0679893488     1.3484651359     6.8552042865
 Xe     2.9524566199     0.4380018831     1.5783745934
          5
Energy: -3.6159599734717176 Kcal/mole
 Xe    -4.1833280682    -0.8253794580     3.0074061875
 Xe     0.4616588316    -0.7588699775     3.1488644961
 Xe    -1.4678620079     1.0331684335    -0.6805419887
 Xe    -1.3112013491    -3.3435213818     0.0117958107
 Xe    -1.4908601322    -4.4344230253     4.4659696995
          5
Energy: -3.757466531874279 Kcal/mole
 Xe    -2.8873210556    -3.3552305698     5.6438546404
 Xe    -5.1049840648    -0.7291783822     3.1660946109
 Xe    -2.2143695234    -2.9891869769     1.0952385587
 Xe    -0.7632848412    -0.0252056365     3.8517756553
 Xe    -3.9344864745     0.8259136149     6.8803365397
          5
Energy: -3.941563425068398 Kcal/mole
 Xe    -3.0017753946    -3.3808654804     5.7020785433
 Xe    -5.0395989269    -0.6214425443     2.8986780362
 Xe    -2.0343826935    -3.4916378005     1.4146042040
 Xe    -0.7462945764    -0.0467894842     3.8566071580
 Xe    -3.8311994019     0.7712496070     6.8983384878
