          5
Energy: -0.09833449134485236 Kcal/mole
 Xe     2.4437267217    -5.4410495354    -2.4249788184
 Xe    -2.5801107101     5.7528373440    -4.9610977205
 Xe    -0.9950765485     4.5094113910     2.9852036875
 Xe    -0.2298161836    -3.6893507632     5.3978599035
 Xe     5.4122288217     3.5508860488    -3.3643374171
