          5
Energy: -0.4659684995761367 Kcal/mole
 Xe     5.0735595787     3.6580368256    -2.8446140296
 Xe    -8.6144220484    -3.5169762649     5.1813040854
 Xe     3.9420309333     8.0453078906     3.5889130476
 Xe     6.7832571390     5.1941948392    -6.6413271446
 Xe    -5.0441109512    -7.5939496220    -6.0817265847
          5
Energy: -1.0167758839717387 Kcal/mole
 Xe    -2.3701010287     7.4909501895     5.2236425465
 Xe     2.7513824233     6.8452860647     1.3608812147
 Xe     7.4392270803     6.8120730006     2.8223625554
 Xe     7.5945919291     6.1962847620    -5.7119882009
 Xe     5.4820237606     8.5449165775     6.5734199963
          5
Energy: -2.130317928889235 Kcal/mole
 Xe    -4.8858655368     1.5624707495     4.0548185485
 Xe     5.1712453298    -4.1256592311    -5.0120614199
 Xe     2.8742618250    -6.0376520154    -8.4508507880
 Xe     2.8447180960    -1.8770766609    -8.0847473383
 Xe     7.5915789483    -2.4089887436    -8.0740978283
          5
Energy: -2.0502144398238964 Kcal/mole
 Xe    -5.2804424885     5.8515231779    -0.1532175800
 Xe    -6.1242736411     2.5445997134     2.7742096753
 Xe    -6.4064557505     8.4112725148    -4.5425190467
 Xe    -2.6037190425     1.2162825767     5.5917558345
 Xe    -1.8010980215     5.5066576059     3.2496970519
          5
Energy: -1.2868193585684908 Kcal/mole
 Xe    -5.5195979832     4.6644715878    -3.4830503753
 Xe    -1.2825544895     5.6140361619    -2.3462263257
 Xe     7.4220778609    -2.9331226641     6.1055736600
 Xe    -6.6500564631    -3.8119390880    -0.1391133432
 Xe    -3.1626175905     1.7644452862    -1.6651458924
          5
Energy: -3.119805356302382 Kcal/mole
 Xe     0.0946706405    -5.5329157091     2.6059062048
 Xe     1.6625840161    -1.4701972840     2.0378595270
 Xe     3.2565462021    -5.4499425545     5.6091827609
 Xe    -0.6745857672    -5.2906546710     7.5099424669
 Xe     0.8263391822    -1.5208049988     6.6704014562
          5
Energy: -3.3006757816066394 Kcal/mole
 Xe     2.3835046960    -0.6893237899     3.9304483662
 Xe     1.9009776100    -3.9324346069     0.4262703739
 Xe     6.2015947210    -3.2949947756     1.8241939459
 Xe     5.1738868415    -3.7931347414    -2.6502244198
 Xe     4.5202231493     0.5590241091    -0.0194217236
          5
Energy: -3.5618195659564704 Kcal/mole
 Xe    -0.7944053798    -2.2385575888    -2.2603611864
 Xe    -1.9021970994    -4.9991469294     1.2600747780
 Xe     0.3661880701    -0.6065200768     2.1755030846
 Xe     2.5970871533    -4.0173535807     0.0169278539
 Xe     3.0344715553     0.2444826658    -1.1106552594
          5
Energy: -3.848295781598246 Kcal/mole
 Xe    -3.4207125153    -1.0821152903     0.9571073172
 Xe     0.3011081707    -1.5664704859     3.7173543295
 Xe     0.6647779030    -0.2839555689    -0.4426929588
 Xe    -0.4769718939    -4.4213521663     0.1128373049
 Xe    -2.2183254121    -2.1274418201    -3.2204467834
          5
Energy: -3.9414970856222737 Kcal/mole
 Xe    -3.3982163619    -1.0594505353     0.9892515729
 Xe     0.0479283804    -1.6730961229     3.6630977769
 Xe     0.6951177206    -0.2652610420    -0.4531735207
 Xe    -0.6160814907    -4.4299723453     0.2827305759
 Xe    -2.2650547211    -2.1666736038    -3.1311942206
