          5
Energy: -3.941667444098212 Kcal/mole
 Xe     5.9588667977    -4.2882486926     4.3295506067
 Xe     2.0523078877    -4.9447379899     6.2720806178
 Xe     9.0741245029    -4.0271832262     7.4342666910
 Xe     5.6836882726    -6.7806354092     7.9820789992
 Xe     5.0650167728    -2.4128679640     8.2425144506
