          5
Energy: -1.0614890992757902 Kcal/mole
 Xe    -1.3763576776     1.7685411924     4.0126614655
 Xe    -1.7359190343    -6.7995233295     7.8494178617
 Xe    -5.3790247700    -0.9288274184    -1.8385878906
 Xe    -0.7694731156    -2.0061939189     8.6181403537
 Xe    -4.3629612316    -4.2988889574     6.1426277688
          5
Energy: -1.6723037409103536 Kcal/mole
 Xe    -1.7641988464    -2.1307677903     8.3541630307
 Xe    -5.2701923877    -6.8724502940    -1.2778768576
 Xe    -0.7144278024    -3.8380342861    -4.0223162933
 Xe    -6.1760361020    -5.1586412022    -5.5586622160
 Xe    -4.2493149223    -2.1314307877    -1.6635484334
          5
Energy: -2.783140273164694 Kcal/mole
 Xe    -6.9458193647    -6.4289798477     1.2346315657
 Xe    -2.9697371953    -7.9602919757    -3.4669505414
 Xe    -2.3747590974    -4.2417146473    -0.9553201897
 Xe    -2.2853487464    -7.2569766131     1.7794309744
 Xe     1.1520424672    -6.7284248519    -1.5373922607
          5
Energy: -2.4197540152599366 Kcal/mole
 Xe    -3.2914607715    -0.2777506340     1.1747673088
 Xe    -7.2282647479    -0.3929204253     2.4637732932
 Xe    -5.6978541133    -3.3938837176    -1.5969801687
 Xe    -3.0248249818    -5.2294314372     2.7593045217
 Xe    -2.4975820756    -6.4615946278    -1.7004993983
          5
Energy: -3.2226510688744217 Kcal/mole
 Xe    -1.8342217725    -0.8760713857     1.8352766341
 Xe     0.7561146700    -4.6842687735     0.6351498737
 Xe    -1.9080695818    -4.8410022939     4.0306037254
 Xe    -6.4127995841    -1.6161195686     1.7485931332
 Xe    -3.8823319913    -4.5671823146    -0.5992972761
          5
Energy: -3.300325766447241 Kcal/mole
 Xe     4.3626969228    -3.6633959920     0.2134566270
 Xe     5.4185651322    -1.9746380849     4.1737798248
 Xe     1.9178571461    -6.8590370945     1.0842218113
 Xe     1.3651217279    -3.3749961927     4.5795077594
 Xe     5.1702670917    -6.0717844466     4.1829269836
          5
Energy: -3.606325129034147 Kcal/mole
 Xe     5.8564629284    -4.5407540992     5.4000593542
 Xe     6.3383248050    -8.8643362413     5.4678812289
 Xe     2.7144051317    -2.4598740550     8.2953674044
 Xe     4.6202298788    -6.5217699491     9.0688619765
 Xe     1.7957547676    -6.0516435399     5.8370402744
          5
Energy: -3.8582257665768123 Kcal/mole
 Xe     6.0786249156    -3.3113620654     7.3161568885
 Xe     4.4493176153    -7.0525741347     5.5171349387
 Xe     3.8333099835     0.0885172189     6.0042169773
 Xe     1.7087499909    -3.9608066552     6.5568342202
 Xe     4.5481146613    -3.2738579989     3.1181917344
          5
Energy: -3.886156442874476 Kcal/mole
 Xe     6.0827900292    -4.4051149847     4.2571581740
 Xe     2.2077929438    -4.7190825276     6.1658814277
 Xe     9.0177553772    -3.9848337417     7.5865079007
 Xe     5.6836882726    -6.7806354092     7.9820789992
 Xe     5.0901150239    -2.3216200651     8.2297303334
          5
Energy: -3.941667444098212 Kcal/mole
 Xe     5.9588667977    -4.2882486926     4.3295506067
 Xe     2.0523078877    -4.9447379899     6.2720806178
 Xe     9.0741245029    -4.0271832262     7.4342666910
 Xe     5.6836882726    -6.7806354092     7.9820789992
 Xe     5.0650167728    -2.4128679640     8.2425144506
