          5
Energy: -3.9414970856222737 Kcal/mole
 Xe    -3.3982163619    -1.0594505353     0.9892515729
 Xe     0.0479283804    -1.6730961229     3.6630977769
 Xe     0.6951177206    -0.2652610420    -0.4531735207
 Xe    -0.6160814907    -4.4299723453     0.2827305759
 Xe    -2.2650547211    -2.1666736038    -3.1311942206
