          6
Energy: -16.876966062242843 Kcal/mole
 H      1.6405665249     0.8167368984     3.4823501635
 F      2.2985572617     0.1882275001     3.3687142251
 H      3.2887266065     1.3770146869     2.5561383407
 F      3.4103442792     2.2304750700     2.2435627240
 H      1.8244539453     2.6694857547     2.8412511482
 F      1.0452364085     2.4420187890     3.2678279993
