          6
Energy: -16.87670122611246 Kcal/mole
 H     -0.7568560850     1.3295027775    -0.3450271912
 F     -0.9967793591     2.1468819090    -0.0055906317
 H     -2.5098486514     2.0553992131    -0.8814138768
 F     -3.0712856825     1.6036872325    -1.4485415050
 H     -1.9130830844     0.3021387073    -1.5622675703
 F     -1.1061989605    -0.0671274176    -1.3310327554
          6
Energy: -16.87688937090661 Kcal/mole
 H     -0.7559801042     1.3281433935    -0.3411066640
 F     -0.9968258279     2.1469540212    -0.0057986066
 H     -2.5071046751     2.0557369418    -0.8844147745
 F     -3.0714312441     1.6036693168    -1.4483823143
 H     -1.9154614399     0.2994102603    -1.5582591245
 F     -1.1060727942    -0.0669826798    -1.3312453942
          6
Energy: -16.876545460854516 Kcal/mole
 H     -0.7503989266     1.3293842426    -0.3400749129
 F     -0.9971218964     2.1468881970    -0.0058533386
 H     -2.5040993352     2.0511169158    -0.8837474621
 F     -3.0715906705     1.6039143985    -1.4484177137
 H     -1.9134847016     0.3024383615    -1.5603789228
 F     -1.1061776556    -0.0671433136    -1.3311329438
          6
Energy: -16.877083511824708 Kcal/mole
 H     -0.7548504040     1.3282675544    -0.3405959795
 F     -0.9968857559     2.1469474347    -0.0058256972
 H     -2.5077338742     2.0541923913    -0.8825529203
 F     -3.0713978666     1.6037512516    -1.4484810814
 H     -1.9122634846     0.3037939411    -1.5624763670
 F     -1.1062424384    -0.0672152239    -1.3310216792
          6
Energy: -16.877106950984 Kcal/mole
 H     -0.7533892090     1.3287856832    -0.3408027862
 F     -0.9969632689     2.1469199492    -0.0058147266
 H     -2.5067676806     2.0551309726    -0.8842667174
 F     -3.0714491209     1.6037014621    -1.4483901684
 H     -1.9133454586     0.3029176785    -1.5600957847
 F     -1.1061850421    -0.0671687402    -1.3311479636
          6
Energy: -16.8762970157689 Kcal/mole
 H     -0.7556523697     1.3282375999    -0.3411011243
 F     -0.9968432134     2.1469490238    -0.0057989005
 H     -2.5099309531     2.0599296809    -0.8849716909
 F     -3.0712813166     1.6034469017    -1.4483527712
 H     -1.9134780481     0.3025161458    -1.5602769150
 F     -1.1061780086    -0.0671474399    -1.3311383550
          6
Energy: -16.876897954258368 Kcal/mole
 H     -0.7541457859     1.3288195149    -0.3414340017
 F     -0.9969231342     2.1469181545    -0.0057812421
 H     -2.5055632383     2.0547693507    -0.8851852332
 F     -3.0715130138     1.6037206453    -1.4483414433
 H     -1.9155276150     0.2987312178    -1.5591163545
 F     -1.1060692838    -0.0669466582    -1.3311999201
          6
Energy: -16.877126402555746 Kcal/mole
 H     -0.7550901753     1.3287230748    -0.3418802947
 F     -0.9968730365     2.1469232704    -0.0057575673
 H     -2.5073321885     2.0555087655    -0.8840044679
 F     -3.0714191751     1.6036814210    -1.4484040802
 H     -1.9133470346     0.3027075097    -1.5604296015
 F     -1.1061849585    -0.0671575913    -1.3311302554
          6
Energy: -16.876885519557618 Kcal/mole
 H     -0.7563086666     1.3273994869    -0.3395210842
 F     -0.9968083984     2.1469934837    -0.0058827179
 H     -2.5086600561     2.0562291686    -0.8832567016
 F     -3.0713487348     1.6036432053    -1.4484437474
 H     -1.9121769010     0.3037120098    -1.5629087605
 F     -1.1062470314    -0.0672108777    -1.3309987417
          6
Energy: -16.87668379978112 Kcal/mole
 H     -0.7499203084     1.3338876719    -0.3473603851
 F     -0.9920626664     2.1528771698    -0.0134258395
 H     -2.5089963214     2.0576698490    -0.8840782470
 F     -3.0713308967     1.6035667805    -1.4484001663
 H     -1.9128750095     0.3033044036    -1.5611259414
 F     -1.1062099984    -0.0671892551    -1.3310933162
          6
Energy: -16.876321937731916 Kcal/mole
 H     -0.7511607252     1.3313831346    -0.3420607442
 F     -0.9919968651     2.1530100297    -0.0137069732
 H     -2.5063091764     2.0539272130    -0.8837641728
 F     -3.0714734435     1.6037653187    -1.4484168273
 H     -1.9130257275     0.3037265222    -1.5599137190
 F     -1.1062020031    -0.0672116475    -1.3311576218
          6
Energy: -16.8759220674566 Kcal/mole
 H     -0.7518005618     1.3335362875    -0.3478558509
 F     -0.9919629233     2.1528958100    -0.0133995562
 H     -2.5106075490     2.0549248226    -0.8802866696
 F     -3.0712454248     1.6037123979    -1.4486013008
 H     -1.9149358351     0.3004119214    -1.5585133345
 F     -1.1061006763    -0.0670358156    -1.3312319089
          6
Energy: -16.87684958239504 Kcal/mole
 H     -0.7483045704     1.3350344771    -0.3489909916
 F     -0.9921483775     2.1528163345    -0.0133393396
 H     -2.5052047602     2.0549195049    -0.8856661100
 F     -3.0715320302     1.6037126799    -1.4483159339
 H     -1.9148297926     0.3009254173    -1.5580594251
 F     -1.1061063017    -0.0670630554    -1.3312559878
          6
Energy: -16.876628617561607 Kcal/mole
 H     -0.7501264736     1.3328655006    -0.3449924026
 F     -0.9920517298     2.1529313937    -0.0135514555
 H     -2.5088126458     2.0543501127    -0.8802666215
 F     -3.0742900490     1.6024286167    -1.4431975835
 H     -1.9159838647     0.3001738751    -1.5551394772
 F     -1.1060450808    -0.0670231878    -1.3314108843
          6
Energy: -16.87625501658846 Kcal/mole
 H     -0.7554241277     1.3333894681    -0.3500697153
 F     -0.9917707015     2.1529035984    -0.0132821158
 H     -2.5071592535     2.0565698636    -0.8837278821
 F     -3.0743777576     1.6023108640    -1.4430139716
 H     -1.9150575731     0.2988248596    -1.5606296716
 F     -1.1060942184    -0.0669516257    -1.3311196421
          6
Energy: -16.87688408461497 Kcal/mole
 H     -0.7505485381     1.3343752467    -0.3490064563
 F     -0.9920293402     2.1528513051    -0.0133385192
 H     -2.5086210287     2.0533950896    -0.8796936066
 F     -3.0743002138     1.6024792784    -1.4432279806
 H     -1.9144712249     0.3010201974    -1.5591809665
 F     -1.1061253228    -0.0670680832    -1.3311964926
          6
Energy: -16.87706811584667 Kcal/mole
 H     -0.7500677768     1.3345497516    -0.3490856787
 F     -0.9920548435     2.1528420480    -0.0133343166
 H     -2.5082549405     2.0560706807    -0.8822147327
 F     -3.0743196339     1.6023373445    -1.4430942407
 H     -1.9154335347     0.2999572404    -1.5574736817
 F     -1.1060742745    -0.0670116958    -1.3312870601
          6
Energy: -16.876725954769995 Kcal/mole
 H     -0.7529981521     1.3327329931    -0.3467426466
 F     -0.9918993939     2.1529384229    -0.0134586091
 H     -2.5098841856     2.0576878078    -0.8818836786
 F     -3.0742332062     1.6022515596    -1.4431118023
 H     -1.9141845362     0.3023609266    -1.5580253794
 F     -1.1061405310    -0.0671392058    -1.3312577938
          6
Energy: -16.87689109591969 Kcal/mole
 H     -0.7519448023     1.3326087396    -0.3456782428
 F     -0.9919552717     2.1529450142    -0.0135150733
 H     -2.5070458588     2.0573723583    -0.8844958547
 F     -3.0743837729     1.6022682935    -1.4429732324
 H     -1.9144578621     0.3009135614    -1.5594003752
 F     -1.1061260317    -0.0670624265    -1.3311848535
          6
Energy: -16.876971523088798 Kcal/mole
 H     -0.7516147326     1.3327896557    -0.3458862564
 F     -0.9919727811     2.1529354171    -0.0135040386
 H     -2.5080442441     2.0553960701    -0.8818822116
 F     -3.0743308109     1.6023731310    -1.4431118802
 H     -1.9154906909     0.3003921050    -1.5565612435
 F     -1.1060712425    -0.0670347644    -1.3313354628
          6
Energy: -16.876959894509127 Kcal/mole
 H     -0.7480299970     1.3339616168    -0.3461631343
 F     -0.9921629430     2.1528732472    -0.0134893509
 H     -2.5067109997     2.0550946436    -0.8829870565
 F     -3.0744015364     1.6023891210    -1.4430532707
 H     -1.9147449695     0.3005746660    -1.5589289193
 F     -1.1061108013    -0.0670444488    -1.3312098631
          6
Energy: -16.87688354082968 Kcal/mole
 H     -0.7527513379     1.3331504069    -0.3475914652
 F     -0.9919124868     2.1529162800    -0.0134135812
 H     -2.5074522360     2.0555618681    -0.8826142428
 F     -3.0743622155     1.6023643358    -1.4430730476
 H     -1.9146602263     0.2994355162    -1.5610553622
 F     -1.1061152968    -0.0669840196    -1.3310970602
          6
Energy: -16.87689091227395 Kcal/mole
 H     -0.7488290111     1.3328696788    -0.3440516170
 F     -0.9921205572     2.1529311720    -0.0136013620
 H     -2.5065352019     2.0555879887    -0.8835645933
 F     -3.0744108621     1.6023629502    -1.4430226337
 H     -1.9151787795     0.3005120330    -1.5574842947
 F     -1.1060877887    -0.0670411263    -1.3312864971
          6
Energy: -16.87666382093022 Kcal/mole
 H     -0.7473082793     1.3352660260    -0.3488296711
 F     -0.9922012285     2.1528040513    -0.0133478973
 H     -2.5094526338     2.0531055246    -0.8786289226
 F     -3.0742560991     1.6024946392    -1.4432844596
 H     -1.9154800389     0.3002100982    -1.5568961055
 F     -1.1060718076    -0.0670251094    -1.3313176992
          6
Energy: -16.87676790818699 Kcal/mole
 H     -0.7535459436     1.3326626917    -0.3469617408
 F     -0.9918703348     2.1529421522    -0.0134469866
 H     -2.5081457212     2.0572661380    -0.8832944952
 F     -3.0743254278     1.6022739282    -1.4430369618
 H     -1.9161523239     0.2977980898    -1.5583906815
 F     -1.1060361444    -0.0668971579    -1.3312384154
          6
Energy: -16.876916017202973 Kcal/mole
 H     -0.7509085254     1.3345439653    -0.3496758769
 F     -0.9920102438     2.1528423550    -0.0133030080
 H     -2.5076526896     2.0557524889    -0.8825656956
 F     -3.0743515820     1.6023542238    -1.4430756229
 H     -1.9147480948     0.3011910195    -1.5579195746
 F     -1.1061106355    -0.0670771450    -1.3312634065
          6
Energy: -16.876379563171213 Kcal/mole
 H     -0.7513061519     1.3334254447    -0.3472282613
 F     -0.9919891506     2.1529016899    -0.0134328484
 H     -2.5074620426     2.0555519334    -0.8825962904
 F     -3.0743616953     1.6023648628    -1.4430739999
 H     -1.9127553240     0.3049109903    -1.5589411912
 F     -1.1062163474    -0.0672744808    -1.3312092121
          6
Energy: -16.876925770526725 Kcal/mole
 H     -0.7498930759     1.3341260422    -0.3479246593
 F     -0.9920641110     2.1528645248    -0.0133959060
 H     -2.5091203895     2.0546895212    -0.8802301607
 F     -3.0742737239     1.6024106118    -1.4431995176
 H     -1.9160620876     0.2993941824    -1.5561322110
 F     -1.1060409313    -0.0669818269    -1.3313582220
          6
Energy: -16.87681425099737 Kcal/mole
 H     -0.7491996449     1.3345370404    -0.3484271454
 F     -0.9921008959     2.1528427223    -0.0133692503
 H     -2.5105263909     2.0553242615    -0.8793316241
 F     -3.0741991387     1.6023769403    -1.4432471829
 H     -1.9151133111     0.3008665486    -1.5571418353
 F     -1.1060912617    -0.0670599325    -1.3313046638
          6
Energy: -16.87701134608892 Kcal/mole
 H     -0.7506955218     1.3342365812    -0.3487739331
 F     -0.9920215431     2.1528586610    -0.0133508540
 H     -2.5070967430     2.0561371530    -0.8834400843
 F     -3.0743810736     1.6023338183    -1.4430292386
 H     -1.9152921677     0.3005298026    -1.5570493695
 F     -1.1060817737    -0.0670420689    -1.3313095689
          6
Energy: -16.87652786368949 Kcal/mole
 H     -0.7488623412     1.3347315938    -0.3486574486
 F     -0.9921187891     2.1528324017    -0.0133570333
 H     -2.5079834694     2.0509918594    -0.8784179280
 F     -3.0743340348     1.6026067642    -1.4432956524
 H     -1.9141490063     0.3007363802    -1.5607753657
 F     -1.1061424158    -0.0670530274    -1.3311119134
          6
Energy: -16.87687750143067 Kcal/mole
 H     -0.7486841703     1.3349480601    -0.3490559721
 F     -0.9921282406     2.1528209187    -0.0133358925
 H     -2.5066907249     2.0562115551    -0.8839123930
 F     -3.0744026120     1.6023298714    -1.4430041837
 H     -1.9165160148     0.2980444622    -1.5566909162
 F     -1.1060168515    -0.0669102274    -1.3313285840
          6
Energy: -16.876926740374415 Kcal/mole
 H     -0.7494304690     1.3351615686    -0.3501145847
 F     -0.9920886512     2.1528095926    -0.0132797356
 H     -2.5086746841     2.0562390891    -0.8819276151
 F     -3.0742973675     1.6023284108    -1.4431094716
 H     -1.9155386791     0.3004659169    -1.5562681494
 F     -1.1060686969    -0.0670386800    -1.3313510108
          6
Energy: -16.87684208715308 Kcal/mole
 H     -0.7488059479     1.3341974178    -0.3473098934
 F     -0.9921217806     2.1528607385    -0.0134285180
 H     -2.5066607755     2.0551889475    -0.8831142168
 F     -3.0744042007     1.6023841184    -1.4430465251
 H     -1.9140845866     0.3008424382    -1.5608321216
 F     -1.1061458331    -0.0670586535    -1.3311089026
          6
Energy: -16.876923563523633 Kcal/mole
 H     -0.7505643452     1.3342847072    -0.3487969788
 F     -0.9920285017     2.1528561080    -0.0133496315
 H     -2.5098133262     2.0546097416    -0.8794714359
 F     -3.0742369652     1.6024148439    -1.4432397662
 H     -1.9150146231     0.3004152029    -1.5582274399
 F     -1.1060964968    -0.0670359897    -1.3312470750
          6
Energy: -16.876484823871806 Kcal/mole
 H     -0.7469668632     1.3338166281    -0.3450221652
 F     -0.9922193398     2.1528809385    -0.0135498767
 H     -2.5072302679     2.0576537448    -0.8845379305
 F     -3.0743739904     1.6022533666    -1.4429710004
 H     -1.9143931047     0.3019331638    -1.5579786596
 F     -1.1061294669    -0.0671165140    -1.3312602722
          6
Energy: -16.87699888511088 Kcal/mole
 H     -0.7502763589     1.3333466326    -0.3462891703
 F     -0.9920437787     2.1529058707    -0.0134826650
 H     -2.5060160731     2.0552004682    -0.8837780347
 F     -3.0744384007     1.6023835073    -1.4430113111
 H     -1.9158563929     0.2998495262    -1.5561306918
 F     -1.1060518429    -0.0670059818    -1.3313583026
          6
Energy: -16.87672693711977 Kcal/mole
 H     -0.7499408613     1.3346281772    -0.3491852948
 F     -0.9920615761     2.1528378877    -0.0133290322
 H     -2.5085458380     2.0537142310    -0.8800246493
 F     -3.0743042025     1.6024623487    -1.4432104195
 H     -1.9145640391     0.3022805418    -1.5568002379
 F     -1.1061203993    -0.0671349416    -1.3313227847
          6
Energy: -16.876835810173134 Kcal/mole
 H     -0.7482475281     1.3342255291    -0.3469711991
 F     -0.9921514035     2.1528592473    -0.0134464849
 H     -2.5070028582     2.0567599114    -0.8840410040
 F     -3.0743860540     1.6023007824    -1.4429973612
 H     -1.9147736524     0.3022829474    -1.5560432928
 F     -1.1061092798    -0.0671350692    -1.3313629389
          6
Energy: -16.87679768105812 Kcal/mole
 H     -0.7524608803     1.3333396960    -0.3478476423
 F     -0.9919278949     2.1529062387    -0.0133999916
 H     -2.5085405117     2.0543459086    -0.8805367491
 F     -3.0743044850     1.6024288397    -1.4431832538
 H     -1.9137880887     0.3012329259    -1.5612485939
 F     -1.1061615616    -0.0670793680    -1.3310868097
          6
Energy: -16.876633841647276 Kcal/mole
 H     -0.7485640986     1.3354794792    -0.3502607910
 F     -0.9921346102     2.1527927281    -0.0132719797
 H     -2.5097219220     2.0557573591    -0.8804856413
 F     -3.0742418140     1.6023539655    -1.4431859650
 H     -1.9160471519     0.3006720288    -1.5540895781
 F     -1.1060417236    -0.0670496137    -1.3314665790
          6
Energy: -16.87689101988343 Kcal/mole
 H     -0.7484343785     1.3350585392    -0.3491438552
 F     -0.9921414915     2.1528150580    -0.0133312305
 H     -2.5072791610     2.0545856260    -0.8820011789
 F     -3.0743713968     1.6024161232    -1.4431055692
 H     -1.9149755911     0.2994899652    -1.5598562373
 F     -1.1060985674    -0.0669869080    -1.3311606710
          6
Energy: -16.876957821079202 Kcal/mole
 H     -0.7509625557     1.3335105579    -0.3471892664
 F     -0.9920073776     2.1528971749    -0.0134349169
 H     -2.5067019207     2.0569428244    -0.8844955073
 F     -3.0744020180     1.6022910793    -1.4429732509
 H     -1.9152918030     0.3009039332    -1.5564402884
 F     -1.1060817931    -0.0670619157    -1.3313418792
          6
Energy: -16.8767821582461 Kcal/mole
 H     -0.7488809457     1.3340437309    -0.3477667044
 F     -0.9911956441     2.1520899176    -0.0116521057
 H     -2.5080923904     2.0567345066    -0.8829167002
 F     -3.0743282568     1.6023021301    -1.4430570029
 H     -1.9148131248     0.3010702073    -1.5578838156
 F     -1.1061071858    -0.0670707362    -1.3312653034
          6
Energy: -16.876909019918628 Kcal/mole
 H     -0.7489530522     1.3338924365    -0.3474502621
 F     -0.9911918190     2.1520979434    -0.0116688922
 H     -2.5004556390     2.0558576168    -0.8840027087
 F     -3.0673361893     1.6066970604    -1.4477315765
 H     -1.9098566692     0.3071633687    -1.5616015969
 F     -1.1022401117    -0.0620627802    -1.3328734897
          6
Energy: -16.876905711784673 Kcal/mole
 H     -0.7497382080     1.3340364815    -0.3483653729
 F     -0.9911501683     2.1520903021    -0.0116203477
 H     -2.5003200732     2.0572329031    -0.8852380242
 F     -3.0673433807     1.6066241047    -1.4476660459
 H     -1.9103996075     0.3055139104    -1.5623389927
 F     -1.1022113101    -0.0619752803    -1.3328343726
          6
Energy: -16.87693138660171 Kcal/mole
 H     -0.7513335750     1.3330218367    -0.3470358618
 F     -0.9910655378     2.1521441267    -0.0116908752
 H     -2.5029015817     2.0587996474    -0.8839008860
 F     -3.0672064377     1.6065409925    -1.4477369779
 H     -1.9096066639     0.3073788853    -1.5621355346
 F     -1.1022533739    -0.0620742129    -1.3328451655
          6
Energy: -16.876945622254937 Kcal/mole
 H     -0.7499705186     1.3333565652    -0.3468759213
 F     -0.9911378448     2.1521263701    -0.0116993597
 H     -2.5019336082     2.0572079842    -0.8835963023
 F     -3.0672577864     1.6066254266    -1.4477531354
 H     -1.9092720852     0.3083850166    -1.5616894112
 F     -1.1022711226    -0.0621275858    -1.3328688313
          6
Energy: -16.876717597532434 Kcal/mole
 H     -0.7510290757     1.3330867618    -0.3469766109
 F     -0.9910816908     2.1521406826    -0.0116940183
 H     -2.5003845869     2.0558535603    -0.8840709350
 F     -3.0673399584     1.6066972756    -1.4477279572
 H     -1.9090582800     0.3075090947    -1.5638491690
 F     -1.1022824644    -0.0620811202    -1.3327542612
          6
Energy: -16.876942091399485 Kcal/mole
 H     -0.7492509565     1.3335443125    -0.3468159345
 F     -0.9911760159     2.1521164106    -0.0117025418
 H     -2.5022702336     2.0560400947    -0.8823290842
 F     -3.0672399292     1.6066873804    -1.4478203584
 H     -1.9099414045     0.3064634961    -1.5624294579
 F     -1.1022356167    -0.0620256536    -1.3328295736
          6
Energy: -16.876768743639673 Kcal/mole
 H     -0.7496674413     1.3344618803    -0.3493462653
 F     -0.9911539223     2.1520677357    -0.0115683136
 H     -2.5038457457     2.0586052103    -0.8828019724
 F     -3.0671563519     1.6065513069    -1.4477952728
 H     -1.9113172987     0.3054018464    -1.5592631668
 F     -1.1021626287    -0.0619693355    -1.3329975380
          6
Energy: -16.876990754114388 Kcal/mole
 H     -0.7485712560     1.3333396432    -0.3458229644
 F     -0.9912120724     2.1521272678    -0.0117552166
 H     -2.5016124157     2.0572343549    -0.8839394281
 F     -3.0672748249     1.6066240277    -1.4477349334
 H     -1.9104287376     0.3067183167    -1.5602949687
 F     -1.1022097648    -0.0620391712    -1.3329428033
          6
Energy: -16.876859838899918 Kcal/mole
 H     -0.7496453359     1.3334168709    -0.3467890759
 F     -0.9911550950     2.1521231710    -0.0117039666
 H     -2.5021476303     2.0583467129    -0.8842930268
 F     -3.0672464330     1.6065650196    -1.4477161758
 H     -1.9115880230     0.3054861400    -1.5581551167
 F     -1.1021482674    -0.0619738071    -1.3330563175
          6
Energy: -16.87694925052176 Kcal/mole
 H     -0.7505267488     1.3325414633    -0.3452794762
 F     -0.9911083381     2.1521696094    -0.0117840474
 H     -2.5022165541     2.0586921644    -0.8845010552
 F     -3.0672427768     1.6065466942    -1.4477051404
 H     -1.9102013764     0.3065377644    -1.5613930818
 F     -1.1022218258    -0.0620295933    -1.3328845509
          6
Energy: -16.87685711544924 Kcal/mole
 H     -0.7501599339     1.3332832347    -0.3468330102
 F     -0.9911277968     2.1521302601    -0.0117016360
 H     -2.5002567301     2.0561385311    -0.8844268317
 F     -3.0673467409     1.6066821586    -1.4477090777
 H     -1.9113484158     0.3050862809    -1.5596636419
 F     -1.1021609780    -0.0619525955    -1.3329762937
          6
Energy: -16.876838275930027 Kcal/mole
 H     -0.7510326145     1.3322520605    -0.3449324160
 F     -0.9910815031     2.1521849615    -0.0118024581
 H     -2.5020667316     2.0567718760    -0.8831150015
 F     -3.0672507245     1.6066485611    -1.4477786673
 H     -1.9104263649     0.3056667349    -1.5619997418
 F     -1.1022098907    -0.0619833872    -1.3328523690
          6
Energy: -16.876841338882684 Kcal/mole
 H     -0.7497571837     1.3327643604    -0.3452711149
 F     -0.9911491617     2.1521577852    -0.0117844909
 H     -2.5018123129     2.0593387060    -0.8854269989
 F     -3.0672642208     1.6065123967    -1.4476560212
 H     -1.9093911816     0.3088711346    -1.5604782965
 F     -1.1022648048    -0.0621533732    -1.3329330782
          6
Energy: -16.876925263045905 Kcal/mole
 H     -0.7506326732     1.3328972891    -0.3462287583
 F     -0.9911027190     2.1521507336    -0.0117336902
 H     -2.4989255314     2.0579717586    -0.8872420111
 F     -3.0674173579     1.6065849101    -1.4475597390
 H     -1.9096192027     0.2996057451    -1.5585758935
 F     -1.1009885322    -0.0660722015    -1.3277402853
          6
Energy: -16.87705260553645 Kcal/mole
 H     -0.7521766472     1.3316727536    -0.3443277652
 F     -0.9910208148     2.1522156924    -0.0118345335
 H     -2.5007711367     2.0580309794    -0.8854235009
 F     -3.0673194528     1.6065817686    -1.4476562067
 H     -1.9094738452     0.3001001403    -1.5583011160
 F     -1.1009962431    -0.0660984281    -1.3277548616
          6
Energy: -16.87709763904536 Kcal/mole
 H     -0.7500927754     1.3329522292    -0.3459746187
 F     -0.9911313594     2.1521478192    -0.0117471717
 H     -2.5004138239     2.0587604758    -0.8863707696
 F     -3.0673384075     1.6065430705    -1.4476059563
 H     -1.9090067500     0.3010468993    -1.5584327092
 F     -1.1010210214    -0.0661486514    -1.3277478809
          6
Energy: -16.877157504867853 Kcal/mole
 H     -0.7501854294     1.3323281309    -0.3445077497
 F     -0.9911264443     2.1521809262    -0.0118249857
 H     -2.5003880283     2.0572640465    -0.8851944726
 F     -3.0673397758     1.6066224526    -1.4476683562
 H     -1.9089611187     0.3005133036    -1.5594389272
 F     -1.1010234421    -0.0661203454    -1.3276945033
          6
Energy: -16.87686698308687 Kcal/mole
 H     -0.7493821911     1.3331688787    -0.3459922993
 F     -0.9911690542     2.1521363264    -0.0117462338
 H     -2.5004028449     2.0552565165    -0.8835773702
 F     -3.0673389899     1.6067289474    -1.4477541397
 H     -1.9078754347     0.3016091153    -1.5614755107
 F     -1.1010810351    -0.0661784757    -1.3275864673
          6
Energy: -16.876964583428332 Kcal/mole
 H     -0.7511727927     1.3324424151    -0.3455013466
 F     -0.9910740669     2.1521748637    -0.0117722777
 H     -2.5042906442     2.0566263692    -0.8822745188
 F     -3.0671701883     1.6034734483    -1.4468168548
 H     -1.9088721249     0.3018067445    -1.5576921364
 F     -1.1010281630    -0.0661889595    -1.3277871665
          6
Energy: -16.87716419579084 Kcal/mole
 H     -0.7486418704     1.3325112317    -0.3438365386
 F     -0.9912083265     2.1521712131    -0.0118605919
 H     -2.5020263661     2.0552118426    -0.8834045391
 F     -3.0672903030     1.6035484856    -1.4467569098
 H     -1.9090468755     0.3011521756    -1.5581243465
 F     -1.1010188929    -0.0661542361    -1.3277642388
          6
Energy: -16.876946618825855 Kcal/mole
 H     -0.7492214899     1.3337950547    -0.3474064947
 F     -0.9911775790     2.1521031093    -0.0116712140
 H     -2.5011863561     2.0550667163    -0.8841322197
 F     -3.0673348636     1.6035561843    -1.4467183081
 H     -1.9105066669     0.3001921576    -1.5544975708
 F     -1.1009414543    -0.0661033094    -1.3279566309
          6
Energy: -16.877229466815663 Kcal/mole
 H     -0.7486404939     1.3328668191    -0.3447120740
 F     -0.9912083995     2.1521523500    -0.0118141468
 H     -2.5015744790     2.0553862399    -0.8839983300
 F     -3.0673142746     1.6035392343    -1.4467254106
 H     -1.9092669136     0.3011648298    -1.5573307975
 F     -1.1010072204    -0.0661549074    -1.3278063347
          6
Energy: -16.877075051709426 Kcal/mole
 H     -0.7471329349     1.3338325268    -0.3459826355
 F     -0.9912883721     2.1521011214    -0.0117467464
 H     -2.5004524214     2.0550014648    -0.8848193835
 F     -3.0673737972     1.6035596457    -1.4466818556
 H     -1.9099691880     0.2999372668    -1.5568171092
 F     -1.1009699663    -0.0660897880    -1.3278335847
          6
Energy: -16.877105828974322 Kcal/mole
 H     -0.7483432643     1.3332245017    -0.3453747419
 F     -0.9912241669     2.1521333758    -0.0117789938
 H     -2.5023350438     2.0572353262    -0.8847226659
 F     -3.0672739284     1.6034411445    -1.4466869863
 H     -1.9088679826     0.3019192572    -1.5575265071
 F     -1.1010283827    -0.0661949280    -1.3277959528
          6
Energy: -16.87703867991172 Kcal/mole
 H     -0.7506747311     1.3319329518    -0.3438870171
 F     -0.9911004879     2.1522018895    -0.0118579141
 H     -2.5022112979     2.0567477132    -0.8844536173
 F     -3.0672804928     1.6034670113    -1.4467012587
 H     -1.9087601953     0.3029916409    -1.5561803624
 F     -1.1010341006    -0.0662518155    -1.3278673627
          6
Energy: -16.87712517199867 Kcal/mole
 H     -0.7497279992     1.3332494790    -0.3464394228
 F     -0.9911507099     2.1521320508    -0.0117225149
 H     -2.5005327740     2.0559123420    -0.8854713553
 F     -3.0673695346     1.6035113258    -1.4466472700
 H     -1.9099441631     0.2998701435    -1.5570127183
 F     -1.1009712938    -0.0660862273    -1.3278232081
          6
Energy: -16.877079184955676 Kcal/mole
 H     -0.7477733106     1.3326801411    -0.3436176292
 F     -0.9912544016     2.1521622528    -0.0118722045
 H     -2.5012619298     2.0559923977    -0.8848003097
 F     -3.0673308546     1.6035070790    -1.4466828674
 H     -1.9097915803     0.3002463563    -1.5569501892
 F     -1.1009793880    -0.0661061845    -1.3278265251
          6
Energy: -16.877083951395207 Kcal/mole
 H     -0.7509492074     1.3321114079    -0.3445258222
 F     -0.9910859276     2.1521924228    -0.0118240270
 H     -2.5029130758     2.0565136969    -0.8835609138
 F     -3.0672432651     1.6034794253    -1.4467486145
 H     -1.9085683564     0.3026642715    -1.5573848172
 F     -1.1010442772    -0.0662344493    -1.3278034691
          6
Energy: -16.877145111174855 Kcal/mole
 H     -0.7480807791     1.3334248873    -0.3456752251
 F     -0.9912380911     2.1521227458    -0.0117630538
 H     -2.5008707219     2.0549795306    -0.8843800383
 F     -3.0673516073     1.6035608093    -1.4467051619
 H     -1.9099039876     0.2996918220    -1.5574387656
 F     -1.1009734251    -0.0660767677    -1.3278006073
          6
Energy: -16.87697528521801 Kcal/mole
 H     -0.7481724465     1.3334623526    -0.3458337818
 F     -0.9912332284     2.1521207583    -0.0117546428
 H     -2.5029272529     2.0553938973    -0.8826478810
 F     -3.0672425131     1.6035388281    -1.4467970488
 H     -1.9084189039     0.3037729760    -1.5561224707
 F     -1.1010522053    -0.0662932635    -1.3278704337
          6
Energy: -16.87719473368452 Kcal/mole
 H     -0.7494217667     1.3322142694    -0.3436720318
 F     -0.9911669548     2.1521869663    -0.0118693186
 H     -2.5013895789     2.0563209257    -0.8849364077
 F     -3.0673240831     1.6034896513    -1.4466756478
 H     -1.9094009297     0.3011933217    -1.5568126098
 F     -1.1010001111    -0.0661564188    -1.3278338234
          6
Energy: -16.877146825178215 Kcal/mole
 H     -0.7490936193     1.3327784934    -0.3448245135
 F     -0.9911843623     2.1521570355    -0.0118081821
 H     -2.5027870832     2.0566454691    -0.8837932426
 F     -3.0672499487     1.6034724351    -1.4467362900
 H     -1.9095354444     0.3008262165    -1.5569262751
 F     -1.1009929754    -0.0661369447    -1.3278277937
          6
Energy: -16.877164190590577 Kcal/mole
 H     -0.7487360656     1.3334344647    -0.3461748209
 F     -0.9912033297     2.1521222377    -0.0117365514
 H     -2.5021887124     2.0566259117    -0.8843781402
 F     -3.0672816909     1.6034734725    -1.4467052626
 H     -1.9090747265     0.3018753271    -1.5568687977
 F     -1.1010174154    -0.0661925976    -1.3278308427
          6
Energy: -16.877231235750628 Kcal/mole
 H     -0.7491650679     1.3328198026    -0.3449780463
 F     -0.9911805721     2.1521548441    -0.0118000376
 H     -2.5014926390     2.0556824923    -0.8843186713
 F     -3.0673186160     1.6035235188    -1.4467084172
 H     -1.9096124080     0.3006151812    -1.5569925564
 F     -1.1009888927    -0.0661257498    -1.3278242776
          6
Energy: -16.877140553358004 Kcal/mole
 H     -0.7505848338     1.3325746977    -0.3454030270
 F     -0.9911052568     2.1521678464    -0.0117774933
 H     -2.5011526398     2.0555527802    -0.8845566370
 F     -3.0673366522     1.6035303997    -1.4466957937
 H     -1.9089420562     0.3006788115    -1.5592433922
 F     -1.1010244533    -0.0661291252    -1.3277048760
          6