          6
Energy: -16.876926495285318 Kcal/mole
 H     -0.7517801388     1.3517743858    -0.3399193086
 F     -1.0110510711     2.1566162666     0.0149005479
 H     -2.5292815085     2.0381759611    -0.8360503601
 F     -3.0916016515     1.5838548603    -1.4002111477
 H     -1.8980766319     0.3139322310    -1.5576324947
 F     -1.0763597158    -0.0342870956    -1.3468871263
