          4
Energy: -6.327993310216584 Kcal/mole
 H      0.7985103059    -6.7675149780    -3.7376318600
 F      1.5132372909    -6.9798568870    -4.2714532258
 H      1.2805849804    -6.6842278704    -5.9248975481
 F      0.9863771500    -6.4653880739    -6.7653973375
