          4
Energy: 0.0728211942633834 Kcal/mole
 H      4.7415498161    -3.6194929150    -2.3994812246
 F      5.5935854271    -3.9584978080    -2.3994812246
 H      4.3468633212     3.6756263373    -0.0755462815
 F      5.1944629525     3.3256779626    -0.0755462815
