          4
Energy: -6.327838422010473 Kcal/mole
 H     -3.2233200838     1.5315947159    -0.3960722998
 F     -3.6431807079     2.2819787387    -0.0774347711
 H     -2.6114228810     3.5732811657     0.3130289507
 F     -1.9201004135     4.1552987152     0.4686497012
