          4
Energy: -6.327385065636065 Kcal/mole
 H     -0.1026718087    -6.0381330370    -1.7612051104
 F     -0.0100395458    -6.6854047792    -2.4041262219
 H     -1.3484202096    -6.8833221099    -3.4350466815
 F     -2.1439933714    -6.8549437915    -3.8901807444
