          4
Energy: -6.327923522595427 Kcal/mole
 H      3.0544544077    -6.4585368560    -4.0965170966
 F      2.2095202051    -6.7933262119    -4.2185469309
 H      1.6421017770    -6.7189538851    -5.8128856982
 F      1.5013353391    -6.6009669634    -6.7113025816
