          4
Energy: -6.327991856470703 Kcal/mole
 H      2.2733131622    -6.7242884918    -4.0035323516
 F      1.4178765956    -6.9505246764    -4.2442281539
 H      1.0426457105    -6.6822991271    -5.8757217239
 F      1.0154848278    -6.4762389585    -6.7688569283
