          4
Energy: -6.32796799071167 Kcal/mole
 H      2.0400716323    -6.3331981632    -3.8722600745
 F      1.4578281692    -6.9460034634    -4.2277192335
 H      1.1753387751    -6.7762295140    -5.8899670548
 F      1.1411356884    -6.5410181090    -6.7756276804
