          4
Energy: -6.327562058582146 Kcal/mole
 H     -4.4229361433     2.7990929681    -5.2403725961
 F     -4.8021445973     2.1082617550    -5.7092459089
 H     -3.7148923777     1.1598570856    -6.6086902235
 F     -3.0009537269     0.7634359377    -7.0258603044
