          4
Energy: -6.327538435601184 Kcal/mole
 H      2.2379360873    -6.6391643084    -3.9778442863
 F      1.4197532677    -6.9550403177    -4.2455908464
 H      1.0475328773    -6.6916202531    -5.8826389459
 F      1.0151611771    -6.4625799085    -6.7699841964
          4
Energy: -6.327793815306791 Kcal/mole
 H      2.3427112063    -6.9359410226    -4.0632936466
 F      1.4450334392    -6.9532893795    -4.2497411216
 H      1.0373322054    -6.6538037831    -5.8689730016
 F      1.0009687369    -6.4802880635    -6.7686723921
          4
Energy: -6.327264826049486 Kcal/mole
 H      2.3289867917    -6.8276286381    -4.0422105355
 F      1.4457614876    -6.9590351012    -4.2508595319
 H      1.0426235382    -6.6656444158    -5.8747650443
 F      0.9998322312    -6.4721830586    -6.7701033085
          4
Energy: -6.32762538929768 Kcal/mole
 H      2.3506706933    -6.8809040486    -4.0551811778
 F      1.4580980726    -6.9512080731    -4.2533237044
 H      1.0464542526    -6.6599187264    -5.8737394690
 F      0.9996290206    -6.4724867931    -6.7701577129
          4
Energy: -6.327851998461426 Kcal/mole
 H      2.2309114819    -6.5575793199    -3.9807076797
 F      1.4529319828    -6.9575026961    -4.2558407240
 H      1.0605817832    -6.7014599047    -5.8873584630
 F      1.0062656226    -6.4662267831    -6.7720076212
          4
Energy: -6.327478970615289 Kcal/mole
 H      2.3157816233    -6.7405478432    -4.0391124718
 F      1.4484298179    -6.9477966387    -4.2527424847
 H      1.0430384592    -6.6707646436    -5.8789057659
 F      1.0071962554    -6.4678550957    -6.7724560173
          4
Energy: -6.327766167369759 Kcal/mole
 H      2.2107401976    -6.5451647172    -3.9709000598
 F      1.4434791692    -6.9597799795    -4.2542614871
 H      1.0567181334    -6.7079437470    -5.8888806153
 F      1.0064705803    -6.4658828302    -6.7719268746
          4
Energy: -6.327545057524958 Kcal/mole
 H      2.1970517269    -6.5335810250    -3.9520431375
 F      1.4442053109    -6.9603944676    -4.2552618033
 H      1.0611111524    -6.7062097660    -5.8886685963
 F      1.0062375408    -6.4659748139    -6.7719381217
          4
Energy: -6.3277299659045525 Kcal/mole
 H      2.1061977936    -6.4196400922    -3.9249978417
 F      1.4490249022    -6.9664387708    -4.2566964937
 H      1.0785110145    -6.7340148284    -5.8969763570
 F      1.0054059439    -6.4747060720    -6.7735056591
          4
Energy: -6.32789091455254 Kcal/mole
 H      2.0477292606    -6.3681326693    -3.9043794985
 F      1.4521265227    -6.9691711206    -4.2577902492
 H      1.0853352664    -6.7398650141    -5.8993280688
 F      1.0050439331    -6.4743957332    -6.7733809062
          4
Energy: -6.327688062885443 Kcal/mole
 H      1.9953483048    -6.3246928770    -3.8969602104
 F      1.4549052114    -6.9714755012    -4.2581838253
 H      1.0912495426    -6.7494220508    -5.9028576407
 F      1.0047301944    -6.4738887545    -6.7731936706
          4
Energy: -6.32782644419774 Kcal/mole
 H      1.7446581638    -6.2244158253    -3.8170173987
 F      1.4682037441    -6.9767949670    -4.2624246067
 H      1.1357641169    -6.7623480211    -5.9127337885
 F      1.0023687991    -6.4732030616    -6.7726697638
          4
Energy: -6.327753905856014 Kcal/mole
 H      1.6973116314    -6.2112310170    -3.8127788318
 F      1.4707153682    -6.9774943906    -4.2626494529
 H      1.1444231696    -6.7647519020    -5.9149377031
 F      1.0019094564    -6.4730755413    -6.7725528512
          4
Energy: -6.327706614322324 Kcal/mole
 H      2.0537593209    -6.3678854573    -3.9151907821
 F      1.4518066420    -6.9691842346    -4.2572167356
 H      1.0820481128    -6.7406278304    -5.8992646540
 F      1.0052183090    -6.4743552676    -6.7733842702
          4
Energy: -6.327743641720531 Kcal/mole
 H      1.9438927446    -6.2967048679    -3.8757457210
 F      1.4576348100    -6.9729602004    -4.2593092049
 H      1.1064098684    -6.7425731680    -5.9013819252
 F      1.0167310756    -6.4553014824    -6.7675930385
          4
Energy: -6.327668996697241 Kcal/mole
 H      1.9335302670    -6.2914372446    -3.8722827514
 F      1.4578875402    -6.9729478724    -4.2598343744
 H      1.1115793639    -6.7455652428    -5.9029325667
 F      1.0164568458    -6.4551427598    -6.7675107806
          4
Energy: -6.3274997156012205 Kcal/mole
 H      2.1281837516    -6.4446603873    -3.9295695759
 F      1.4475616226    -6.9648197388    -4.2567954408
 H      1.0762695976    -6.7166390316    -5.8906911525
 F      1.0183299473    -6.4566772284    -6.7681601593
          4
Energy: -6.327627302979522 Kcal/mole
 H      2.0429211044    -6.3539966234    -3.9080598747
 F      1.4584670062    -6.9664302180    -4.2605190912
 H      1.0892003955    -6.7341833899    -5.8965255519
 F      1.0094035368    -6.4600994669    -6.7679608418
          4
Energy: -6.327802131478052 Kcal/mole
 H      2.1423993841    -6.4483930847    -3.9384688939
 F      1.4531899133    -6.9614227039    -4.2589059630
 H      1.0729590286    -6.7156877877    -5.8929608163
 F      1.0088281089    -6.4564455906    -6.7702120393
          4
Energy: -6.327480781025031 Kcal/mole
 H      2.0436601892    -6.3516990652    -3.9133278367
 F      1.4584277995    -6.9665520981    -4.2602396380
 H      1.0855890765    -6.7337117890    -5.8995271213
 F      1.0081581140    -6.4554894590    -6.7698637120
          4
Energy: -6.32788345963877 Kcal/mole
 H      2.0538988354    -6.3762230736    -3.9070970693
 F      1.4515991556    -6.9697438726    -4.2618605919
 H      1.0896623044    -6.7275191484    -5.9030481358
 F      1.0153742590    -6.4531429393    -6.7748783843
          4
Energy: -6.327647281546319 Kcal/mole
 H      1.9918821197    -6.3359372533    -3.8785342414
 F      1.4548889991    -6.9718809422    -4.2633757839
 H      1.1044423065    -6.7332945141    -5.9062835045
 F      1.0145902140    -6.4528365695    -6.7747067555
          4
Energy: -6.327906299499489 Kcal/mole
 H      1.9410412031    -6.2913921180    -3.8770628263
 F      1.4560693532    -6.9668065883    -4.2637236571
 H      1.1061745177    -6.7382117612    -5.9080691701
 F      1.0144983242    -6.4525757209    -6.7746120300
          4
Energy: -6.327122441772701 Kcal/mole
 H      1.6711967798    -6.2075450071    -3.8015624416
 F      1.4703839763    -6.9712544838    -4.2677287780
 H      1.1545092577    -6.7502792773    -5.9210498951
 F      1.0122130224    -6.4626975825    -6.7800828108
          4
Energy: -6.3277888556479525 Kcal/mole
 H      1.7770532030    -6.2345539003    -3.8426892640
 F      1.4587599810    -6.9795060875    -4.2723689862
 H      1.1336051995    -6.7557345518    -5.9197006759
 F      1.0133219344    -6.4624081928    -6.7801543837
          4
Energy: -6.327436670676036 Kcal/mole
 H      1.8040433233    -6.2619570484    -3.8295728332
 F      1.4544652770    -6.9862044017    -4.2701973454
 H      1.1311535901    -6.7555353027    -5.9192938441
 F      1.0134519866    -6.4624187625    -6.7801759652
          4
Energy: -6.327858514628417 Kcal/mole
 H      1.8737511148    -6.2821100142    -3.8590842634
 F      1.4507674398    -6.9851353335    -4.2686318322
 H      1.1129448089    -6.7532930232    -5.9162523593
 F      1.0144179204    -6.4625377102    -6.7803373089
          4
Energy: -6.327767160120231 Kcal/mole
 H      1.5527144688    -6.2128343076    -3.7910551280
 F      1.4677976920    -6.9888102496    -4.2722406206
 H      1.1687127760    -6.7647905070    -5.9285478218
 F      1.0114595586    -6.4619277953    -6.7796850631
          4
Energy: -6.32792030666468 Kcal/mole
 H      1.5135594343    -6.2165146711    -3.7800354665
 F      1.4698747761    -6.9886150148    -4.2728251882
 H      1.1733264030    -6.7643728910    -5.9292652120
 F      1.0112148164    -6.4619499489    -6.7796470072
          4
Energy: -6.32786328445053 Kcal/mole
 H      1.2795949576    -6.2677766825    -3.7475794224
 F      1.4702717246    -6.9933082399    -4.2749647937
 H      1.2042569026    -6.7616505712    -5.9348094396
 F      1.0095740248    -6.4620943616    -6.7793528987
          4
Energy: -6.327838996455512 Kcal/mole
 H      1.3798645519    -6.2424130377    -3.7569881774
 F      1.4649526543    -6.9946537226    -4.2744656810
 H      1.1912397444    -6.7642866720    -5.9328561095
 F      1.0102645550    -6.4619545226    -6.7794565184
          4
Energy: -6.327848113300206 Kcal/mole
 H      1.1679240221    -6.3117486753    -3.7418741779
 F      1.4761956097    -6.9909756273    -4.2752674437
 H      1.2245070005    -6.7517756977    -5.9362927011
 F      1.0084998039    -6.4626182009    -6.7792742151
          4
Energy: -6.327685002896544 Kcal/mole
 H      1.2717338178    -6.2769874450    -3.7379884813
 F      1.4706887399    -6.9928196302    -4.2754735709
 H      1.2042268180    -6.7564677214    -5.9329829954
 F      1.0095756207    -6.4623692998    -6.7794497874
          4
Energy: -6.327847156861708 Kcal/mole
 H      1.3850855564    -6.2411345227    -3.7580187109
 F      1.4646756921    -6.9947215449    -4.2744110135
 H      1.1858264462    -6.7628272682    -5.9311990102
 F      1.0105517180    -6.4620319406    -6.7795444237
          4
Energy: -6.327798894913087 Kcal/mole
 H      1.2457252751    -6.2761536889    -3.7495197767
 F      1.4720684330    -6.9928638591    -4.2748618624
 H      1.2083206257    -6.7606139570    -5.9341771130
 F      1.0054659048    -6.4605441261    -6.7766123086
          4
Energy: -6.327698361103501 Kcal/mole
 H      1.4281021737    -6.2350354187    -3.7718607982
 F      1.4655689813    -7.0015889087    -4.2737382586
 H      1.1787407741    -6.7700197803    -5.9310131128
 F      1.0070350476    -6.4600451689    -6.7767801515
          4
Energy: -6.327702672985765 Kcal/mole
 H      1.4741558169    -6.2299101104    -3.7785505970
 F      1.4631259419    -7.0018607945    -4.2733833802
 H      1.1750031288    -6.7705000313    -5.9304393624
 F      1.0072333211    -6.4600196927    -6.7768105876
          4
Energy: -6.327960703906683 Kcal/mole
 H      1.6377294771    -6.2364723221    -3.8010120411
 F      1.4544487372    -7.0015126843    -4.2721918525
 H      1.1505368994    -6.7641968006    -5.9236269976
 F      1.0130821894    -6.4551140677    -6.7759550254
          4
Energy: -6.327910634685281 Kcal/mole
 H      1.3976549479    -6.2467380739    -3.7575893895
 F      1.4671841362    -7.0009681099    -4.2744953238
 H      1.1899078501    -6.7601882739    -5.9295115852
 F      1.0109936514    -6.4553267108    -6.7756428616
          4
Energy: -6.327556563060796 Kcal/mole
 H      1.4349868394    -6.2318997386    -3.7762161266
 F      1.4652037657    -7.0017552493    -4.2735072184
 H      1.1772000386    -6.7711192819    -5.9267495688
 F      1.0026895490    -6.4594029308    -6.7713015243
          4
Energy: -6.3274477199291255 Kcal/mole
 H      1.4749588019    -6.2288381652    -3.7802457214
 F      1.4630833454    -7.0019176587    -4.2732934578
 H      1.1671287943    -6.7685958429    -5.9223213705
 F      0.9949973767    -6.4600903064    -6.7685389011
          4
Energy: -6.327390212570435 Kcal/mole
 H      1.5397202351    -6.2343860532    -3.7855295720
 F      1.4664204110    -7.0066029432    -4.2746074908
 H      1.1554856047    -6.7676933580    -5.9197130675
 F      0.9956150211    -6.4601381811    -6.7686772656
          4
Energy: -6.327486228670807 Kcal/mole
 H      1.6311404636    -6.2352949269    -3.8073049157
 F      1.4615707791    -7.0065547295    -4.2734523591
 H      1.1405334691    -6.7723670526    -5.9187433229
 F      0.9964081973    -6.4598902525    -6.7687287083
          4
Energy: -6.327559562254692 Kcal/mole
 H      1.5350116229    -6.2344953808    -3.7846759216
 F      1.4666701920    -7.0065971436    -4.2746527750
 H      1.1603849224    -6.7717243661    -5.9221245589
 F      0.9953551236    -6.4599243455    -6.7685493415
          4
Energy: -6.327476247960988 Kcal/mole
 H      1.6188021633    -6.2337663181    -3.8055239509
 F      1.4622252975    -7.0066358187    -4.2735468352
 H      1.1429330839    -6.7731833333    -5.9194545856
 F      0.9962809033    -6.4598469506    -6.7686909774
          4
Energy: -6.327932673071359 Kcal/mole
 H      1.7865598949    -6.2768731305    -3.8276052681
 F      1.4365308503    -7.0033758769    -4.2641398343
 H      1.1113638102    -6.7626014743    -5.9108320901
 F      0.9979555803    -6.4604082938    -6.7691483809
          4
Energy: -6.3273392580041445 Kcal/mole
 H      1.6089331869    -6.2444663406    -3.7894774707
 F      1.4566749251    -7.0093932394    -4.2717567065
 H      1.1391372290    -6.7698187302    -5.9175758184
 F      0.9964822646    -6.4600254351    -6.7687906417
          4
Energy: -6.327670794840856 Kcal/mole
 H      1.3391633301    -6.2632550938    -3.7556000466
 F      1.4709855927    -7.0083965394    -4.2735538256
 H      1.1873414093    -6.7706778610    -5.9274652790
 F      0.9939251442    -6.4599798602    -6.7682660287
          4
Energy: -6.327813385885179 Kcal/mole
 H      1.4788950568    -6.2441383086    -3.7679130299
 F      1.4635731474    -7.0094106407    -4.2729006503
 H      1.1645108341    -6.7707017039    -5.9225636381
 F      0.9951362535    -6.4599785954    -6.7685260494
          4
Energy: -6.32788041729134 Kcal/mole
 H      1.5035654303    -6.2396851441    -3.7761357641
 F      1.4622644411    -7.0096468708    -4.2724644532
 H      1.1601402864    -6.7710478037    -5.9218280109
 F      0.9953681009    -6.4599602356    -6.7685650727
          4
Energy: -6.327849951039354 Kcal/mole
 H      1.5943727929    -6.2393339776    -3.7932970813
 F      1.4574473204    -7.0096654994    -4.2715540850
 H      1.1466057515    -6.7723691346    -5.9197972458
 F      0.9960860767    -6.4598901420    -6.7686728001
          4
Energy: -6.327833023405674 Kcal/mole
 H      1.5521101534    -6.2403504814    -3.7816761590
 F      1.4596892558    -7.0096115762    -4.2721705481
 H      1.1518270118    -6.7707310883    -5.9201387274
 F      0.9958091010    -6.4599770366    -6.7686546853
          4
Energy: -6.327863752120436 Kcal/mole
 H      1.4390936358    -6.2470561235    -3.7639605482
 F      1.4656845209    -7.0092558574    -4.2731103203
 H      1.1715928280    -6.7682054068    -5.9230999417
 F      0.9947605701    -6.4601110181    -6.7684975997
          4
Energy: -6.32787695706844 Kcal/mole
 H      1.4071628964    -6.2505411401    -3.7614843419
 F      1.4673783728    -7.0090709853    -4.2732416773
 H      1.1774563858    -6.7694383416    -5.9247999121
 F      0.9944495219    -6.4600456138    -6.7684074202
          4
Energy: -6.327761515897635 Kcal/mole
 H      1.3858350094    -6.2521615823    -3.7620630899
 F      1.4685097679    -7.0089850246    -4.2732109761
 H      1.1798017328    -6.7714232538    -5.9260435200
 F      0.9943251066    -6.4599403188    -6.7683414497
          4
Energy: -6.327851235492631 Kcal/mole
 H      1.3102688201    -6.2727097688    -3.7503200494
 F      1.4725183796    -7.0078949908    -4.2738339172
 H      1.1927821497    -6.7664116447    -5.9271703668
 F      0.9936365255    -6.4602061731    -6.7682816731
          4
Energy: -6.327806833516263 Kcal/mole
 H      1.2440862848    -6.2993233388    -3.7387106473
 F      1.4760292102    -7.0064832024    -4.2744497692
 H      1.2010559660    -6.7609277739    -5.9271945981
 F      0.9931976187    -6.4604970797    -6.7682803877
          4
Energy: -6.32785146418496 Kcal/mole
 H      1.3057866419    -6.2665366030    -3.7480522401
 F      1.4703888815    -7.0005610535    -4.2724597237
 H      1.1968452713    -6.7618846135    -5.9263779065
 F      0.9998280253    -6.4601393519    -6.7695997053
          4
Energy: -6.327836921683456 Kcal/mole
 H      1.1638435584    -6.3409892038    -3.7321440906
 F      1.4859599246    -7.0061777863    -4.2749646838
 H      1.2222203824    -6.7531560156    -5.9296395210
 F      0.9984819343    -6.4606023838    -6.7694266841
          4
Energy: -6.327906383382924 Kcal/mole
 H      1.1665454523    -6.3407844649    -3.7308005198
 F      1.4858165953    -7.0061886472    -4.2750359572
 H      1.2227006988    -6.7532177980    -5.9297891722
 F      0.9984564546    -6.4605991064    -6.7694187455
          4
Energy: -6.327939145251662 Kcal/mole
 H      1.1163668610    -6.3733000979    -3.7239861765
 F      1.4884784537    -7.0044637680    -4.2753974423
 H      1.2310816097    -6.7494984648    -5.9307846265
 F      0.9980118667    -6.4607964085    -6.7693659389
          4
Energy: -6.3278859164884125 Kcal/mole
 H      1.0429486332    -6.4206749597    -3.7266010821
 F      1.4923731210    -7.0019506411    -4.2752587276
 H      1.2421165431    -6.7410979343    -5.9310803350
 F      0.9974264890    -6.4612420372    -6.7693502523
          4
Energy: -6.327966510538033 Kcal/mole
 H      1.0329221193    -6.4314991597    -3.7235642044
 F      1.4929050044    -7.0013764423    -4.2754198270
 H      1.2437141408    -6.7402479870    -5.9312649959
 F      0.9973417401    -6.4612871249    -6.7693404565
          4
Energy: -6.327952150411988 Kcal/mole
 H      0.9497076377    -6.5080931835    -3.7260398367
 F      1.4973193403    -6.9973133063    -4.2752885004
 H      1.2582991661    -6.7281518615    -5.9317520280
 F      0.9965680382    -6.4619287964    -6.7693146205
          4
Energy: -6.327879486178631 Kcal/mole
 H      1.0272973125    -6.4382080122    -3.7214022436
 F      1.4932033874    -7.0010205532    -4.2755345140
 H      1.2430180398    -6.7399015518    -5.9309454902
 F      0.9973786667    -6.4613055025    -6.7693574055
          4
Energy: -6.327856205790567 Kcal/mole
 H      1.0664694416    -6.4090114677    -3.7203897503
 F      1.4911253964    -7.0025693624    -4.2755882244
 H      1.2388664427    -6.7448232856    -5.9313907529
 F      0.9975988993    -6.4610444159    -6.7693337853
          4
Energy: -6.3279470318543645 Kcal/mole
 H      0.9007602802    -6.5701729132    -3.7255378070
 F      1.4999158845    -6.9940201201    -4.2753151319
 H      1.2661736381    -6.7163732459    -5.9305958818
 F      0.9961503157    -6.4625536248    -6.7693759514
          4
Energy: -6.3279013490031275 Kcal/mole
 H      0.9337783421    -6.5285857014    -3.7243174658
 F      1.4981643527    -6.9962262256    -4.2753798682
 H      1.2587061775    -6.7255406635    -5.9310539313
 F      0.9965464472    -6.4620673145    -6.7693516529
          4
Energy: -6.327913407002654 Kcal/mole
 H      0.8663746577    -6.6196578636    -3.7283467844
 F      1.5017399624    -6.9913950578    -4.2751661222
 H      1.2696208033    -6.7087290678    -5.9294374166
 F      0.9959674515    -6.4629591308    -6.7694374053
          4
Energy: -6.32788949009182 Kcal/mole
 H      0.8493092872    -6.6457351520    -3.7258841325
 F      1.5020382449    -6.9884465038    -4.2712123247
 H      1.2742094126    -6.7042303056    -5.9296419311
 F      0.9957240364    -6.4631977797    -6.7694265563
          4
Energy: -6.327833687777627 Kcal/mole
 H      0.8023431730    -6.7392350455    -3.7339738158
 F      1.5045296887    -6.9834865505    -4.2707831857
 H      1.2825639453    -6.6885709139    -5.9281168732
 F      0.9952808478    -6.4640284742    -6.7695074571
          4
Energy: -6.327901683619189 Kcal/mole
 H      0.7629474248    -6.8346134159    -3.7529051926
 F      1.5066195421    -6.9784269483    -4.2697789199
 H      1.2835713570    -6.6748573022    -5.9228399501
 F      0.9853624920    -6.4672027468    -6.7647663474
          4
Energy: -6.327943314758727 Kcal/mole
 H      0.7743523878    -6.8426082568    -3.7462006911
 F      1.5140244606    -6.9768361218    -4.2713264902
 H      1.2832969503    -6.6724926803    -5.9221633704
 F      0.9853770487    -6.4673281845    -6.7648022384
          4
Energy: -6.327959506277523 Kcal/mole
 H      0.7818206168    -6.8110140545    -3.7448157488
 F      1.5136282883    -6.9785121212    -4.2713999582
 H      1.2826394184    -6.6775730513    -5.9231849073
 F      0.9854119292    -6.4670586826    -6.7647480483
          4
Energy: -6.327886900739543 Kcal/mole
 H      0.7658504099    -6.8785790122    -3.7503689719
 F      1.5144754709    -6.9749279564    -4.2711053726
 H      1.2844468691    -6.6658680819    -5.9209860973
 F      0.9853160481    -6.4676796041    -6.7648646900
          4
Energy: -6.32788560544185 Kcal/mole
 H      0.7625167870    -6.8943705170    -3.7525076711
 F      1.5146523119    -6.9740902535    -4.2709919195
 H      1.2851276520    -6.6634305391    -5.9206590112
 F      0.9852799342    -6.4678089101    -6.7648820412
          4
Energy: -6.327965324118111 Kcal/mole
 H      0.7520950460    -6.9335454775    -3.7633916036
 F      1.5152051611    -6.9720121124    -4.2704145520
 H      1.2882629644    -6.6588235636    -5.9207244505
 F      0.9851136131    -6.4680532995    -6.7648785698
          4
Energy: -6.3279488474884715 Kcal/mole
 H      0.7550181598    -6.9232461573    -3.7599051208
 F      1.5150500967    -6.9725584675    -4.2705995019
 H      1.2876614562    -6.6606323404    -5.9209194944
 F      0.9851455217    -6.4679573481    -6.7648682232
          4
Energy: -6.327932683684253 Kcal/mole
 H      0.7537311405    -6.9122564963    -3.7630178724
 F      1.5151183701    -6.9731414437    -4.2704343776
 H      1.2882746655    -6.6626228324    -5.9215967266
 F      0.9851129924    -6.4678517571    -6.7648322976
          4
Energy: -6.327952022626789 Kcal/mole
 H      0.7643180496    -6.8667887089    -3.7549172768
 F      1.5145567590    -6.9755534047    -4.2708640955
 H      1.2858431413    -6.6689692791    -5.9222175284
 F      0.9852419791    -6.4675150928    -6.7647993655
          4
Energy: -6.327880721943927 Kcal/mole
 H      0.7611513527    -6.8762002726    -3.7576461857
 F      1.5147247450    -6.9750541430    -4.2707193332
 H      1.2873439879    -6.6662057659    -5.9220984296
 F      0.9851623627    -6.4676616908    -6.7648056834
          4
Energy: -6.327961098348055 Kcal/mole
 H      0.7804585710    -6.8198343316    -3.7439833652
 F      1.5137005417    -6.9780442259    -4.2714441142
 H      1.2821350418    -6.6775162069    -5.9229927339
 F      0.9854386852    -6.4670616980    -6.7647582426
          4
Energy: -6.3279718009357 Kcal/mole
 H      0.7815937223    -6.8104638541    -3.7453066751
 F      1.5136403245    -6.9785413081    -4.2713739157
 H      1.2831434233    -6.6788281239    -5.9236781634
 F      0.9853851929    -6.4669921039    -6.7647218822
          4
Energy: -6.327953137796499 Kcal/mole
 H      0.8008018922    -6.7549692269    -3.7397901134
 F      1.5126213755    -6.9814851698    -4.2716665566
 H      1.2798957673    -6.6881537454    -5.9249392956
 F      0.9855574736    -6.4664974012    -6.7646549820
          4
Energy: -6.32796728190749 Kcal/mole
 H      0.8040430757    -6.7486195531    -3.7382093709
 F      1.5124494382    -6.9818220054    -4.2717504113
 H      1.2793569306    -6.6887950137    -5.9249201350
 F      0.9855860576    -6.4664633834    -6.7646559984
          4
Energy: -6.327966884424029 Kcal/mole
 H      0.7837740272    -6.8039715799    -3.7443947265
 F      1.5135246644    -6.9788857082    -4.2714222925
 H      1.2826950934    -6.6790484443    -5.9235750949
 F      0.9854089758    -6.4669804164    -6.7647273497
          4
Energy: -6.3279491283643665 Kcal/mole
 H      0.7744313189    -6.8352114813    -3.7480384585
 F      1.5140202735    -6.9772285037    -4.2712290009
 H      1.2836059316    -6.6758071237    -5.9230870656
 F      0.9853606579    -6.4671523609    -6.7647532385
          4
Energy: -6.32795041922418 Kcal/mole
 H      0.7875792454    -6.7914191655    -3.7434645559
 F      1.5133228063    -6.9795515848    -4.2714716359
 H      1.2819002824    -6.6807953275    -5.9237369264
 F      0.9854511387    -6.4668877482    -6.7647187649
          4
Energy: -6.327966061972177 Kcal/mole
 H      0.8081678274    -6.7424556963    -3.7354884678
 F      1.5122306296    -6.9821489837    -4.2718947489
 H      1.2781844824    -6.6889268751    -5.9245458417
 F      0.9856482533    -6.4664563884    -6.7646758538
          4
Energy: -6.32796652697283 Kcal/mole
 H      0.8109342320    -6.7354511158    -3.7350432747
 F      1.5120838783    -6.9825205605    -4.2719183654
 H      1.2776640777    -6.6915095094    -5.9250530402
 F      0.9856758595    -6.4663193857    -6.7646489481
          4
Energy: -6.327949451547795 Kcal/mole
 H      0.8075576404    -6.7472820792    -3.7341576700
 F      1.5122629987    -6.9818929553    -4.2719653447
 H      1.2780224179    -6.6895910402    -5.9246655863
 F      0.9856568504    -6.4664211560    -6.7646695017
          4
Energy: -6.327975126032811 Kcal/mole
 H      0.7974722480    -6.7675053630    -3.7390743902
 F      1.5127980054    -6.9808201568    -4.2717045240
 H      1.2802053783    -6.6853581089    -5.9243150731
 F      0.9855410494    -6.4666457032    -6.7646880956
          4
Energy: -6.327972895899677 Kcal/mole
 H      0.7980279418    -6.7673167819    -3.7384043994
 F      1.5127685271    -6.9808301606    -4.2717400655
 H      1.2803310943    -6.6857363238    -5.9244576987
 F      0.9855343805    -6.4666256398    -6.7646805296
          4
Energy: -6.327974685037759 Kcal/mole
 H      0.7974541909    -6.7669289257    -3.7393298936
 F      1.5127989633    -6.9808507355    -4.2716909702
 H      1.2804293982    -6.6856288465    -5.9244641748
 F      0.9855291657    -6.4666313412    -6.7646801861
          4
Energy: -6.327976332576384 Kcal/mole
 H      0.7978255792    -6.7670474457    -3.7387836711
 F      1.5127792620    -6.9808444482    -4.2717199460
 H      1.2801292676    -6.6856713518    -5.9243699765
 F      0.9855450869    -6.4666290864    -6.7646851831
          4
Energy: -6.327993300350329 Kcal/mole
 H      0.7985166698    -6.7674690346    -3.7376416169
 F      1.5132369533    -6.9798593242    -4.2714527082
 H      1.2805742631    -6.6842225932    -5.9248735735
 F      0.9863560561    -6.4653646512    -6.7653650059
          4
Energy: -6.327993300350329 Kcal/mole
 H      0.7985166698    -6.7674690346    -3.7376416169
 F      1.5132369533    -6.9798593242    -4.2714527082
 H      1.2805742631    -6.6842225932    -5.9248735735
 F      0.9863560561    -6.4653646512    -6.7653650059
          4
Energy: -6.327993300350386 Kcal/mole
 H      0.7985165831    -6.7674693263    -3.7376416169
 F      1.5132369579    -6.9798593087    -4.2714527082
 H      1.2805743409    -6.6842224887    -5.9248735735
 F      0.9863560519    -6.4653646567    -6.7653650059
          4
Energy: -6.327993300350386 Kcal/mole
 H      0.7985165936    -6.7674690788    -3.7376417013
 F      1.5132369573    -6.9798593218    -4.2714527037
 H      1.2805743409    -6.6842224887    -5.9248735735
 F      0.9863560519    -6.4653646567    -6.7653650059
          4
Energy: -6.327993300350386 Kcal/mole
 H      0.7985165936    -6.7674690788    -3.7376417013
 F      1.5132369573    -6.9798593218    -4.2714527037
 H      1.2805743409    -6.6842224887    -5.9248735735
 F      0.9863560519    -6.4653646567    -6.7653650059
          4
Energy: -6.327993300350386 Kcal/mole
 H      0.7985166250    -6.7674692118    -3.7376416064
 F      1.5132369557    -6.9798593148    -4.2714527087
 H      1.2805743409    -6.6842224887    -5.9248735735
 F      0.9863560519    -6.4653646567    -6.7653650059
          4
Energy: -6.3279933003504425 Kcal/mole
 H      0.7985165643    -6.7674692118    -3.7376416876
 F      1.5132369589    -6.9798593148    -4.2714527044
 H      1.2805743174    -6.6842225202    -5.9248735735
 F      0.9863560532    -6.4653646551    -6.7653650059
          4
Energy: -6.3279933003504425 Kcal/mole
 H      0.7985165643    -6.7674692118    -3.7376416876
 F      1.5132369589    -6.9798593148    -4.2714527044
 H      1.2805743174    -6.6842225202    -5.9248735735
 F      0.9863560532    -6.4653646551    -6.7653650059
          4
Energy: -6.3279933003504425 Kcal/mole
 H      0.7985165643    -6.7674692118    -3.7376416876
 F      1.5132369589    -6.9798593148    -4.2714527044
 H      1.2805743174    -6.6842225202    -5.9248735735
 F      0.9863560532    -6.4653646551    -6.7653650059
          4
Energy: -6.3279933003504425 Kcal/mole
 H      0.7985166117    -6.7674690523    -3.7376416876
 F      1.5132369564    -6.9798593232    -4.2714527044
 H      1.2805743174    -6.6842225202    -5.9248735735
 F      0.9863560532    -6.4653646551    -6.7653650059
          4
Energy: -6.3279933003504425 Kcal/mole
 H      0.7985166537    -6.7674690523    -3.7376416313
 F      1.5132369541    -6.9798593232    -4.2714527074
 H      1.2805743174    -6.6842225202    -5.9248735735
 F      0.9863560532    -6.4653646551    -6.7653650059
          4
Energy: -6.3279933003504425 Kcal/mole
 H      0.7985166537    -6.7674690523    -3.7376416313
 F      1.5132369541    -6.9798593232    -4.2714527074
 H      1.2805743174    -6.6842225202    -5.9248735735
 F      0.9863560532    -6.4653646551    -6.7653650059
          4
Energy: -6.3279933003504425 Kcal/mole
 H      0.7985168139    -6.7674685134    -3.7376416313
 F      1.5132369457    -6.9798593518    -4.2714527074
 H      1.2805743174    -6.6842225602    -5.9248735839
 F      0.9863560532    -6.4653646529    -6.7653650053
          4
Energy: -6.3279933003504425 Kcal/mole
 H      0.7985168139    -6.7674685134    -3.7376416313
 F      1.5132369457    -6.9798593518    -4.2714527074
 H      1.2805743174    -6.6842225602    -5.9248735839
 F      0.9863560532    -6.4653646529    -6.7653650053
          4
Energy: -6.3279933003504425 Kcal/mole
 H      0.7985168139    -6.7674685134    -3.7376416313
 F      1.5132369457    -6.9798593518    -4.2714527074
 H      1.2805743174    -6.6842225602    -5.9248735839
 F      0.9863560532    -6.4653646529    -6.7653650053
          4
Energy: -6.3279933003504425 Kcal/mole
 H      0.7985167322    -6.7674689230    -3.7376415777
 F      1.5132369500    -6.9798593301    -4.2714527103
 H      1.2805743174    -6.6842225602    -5.9248735839
 F      0.9863560532    -6.4653646529    -6.7653650053
          4
Energy: -6.327993300350556 Kcal/mole
 H      0.7985167582    -6.7674688353    -3.7376415777