          4
Energy: -6.325455295805909 Kcal/mole
 H      1.3461315731    -6.3577537271    -3.7932322043
 F      1.6099372180    -7.1404161613    -4.1916479366
 H      1.6579286369    -7.1018727682    -5.8874822151
 F      1.6068827805    -6.9078968945    -6.7822764266
          4
Energy: -6.3261902469415645 Kcal/mole
 H      0.7895442822    -6.8612293168    -3.8648733709
 F      1.6433212302    -6.9683823846    -4.1818467816
 H      1.7366939208    -6.9417356331    -5.8727134890
 F      1.6004612513    -6.9058381359    -6.7788266329
          4
Energy: -6.326541181784705 Kcal/mole
 H      0.6253893360    -6.8220491524    -3.8321548685
 F      1.4594925649    -7.0283955415    -4.1524390723
 H      1.6114306061    -6.9574031521    -5.8353434527
 F      1.5187793888    -6.8835974916    -6.7446604912
          4
Energy: -6.327402071261929 Kcal/mole
 H      0.6746839890    -6.6351237712    -3.7816554295
 F      1.4336869619    -7.0178356807    -4.1256540942
 H      1.5409276921    -6.9675533108    -5.8196097172
 F      1.4373265220    -6.8563186825    -6.7239230783
          4
Energy: -6.325259034206965 Kcal/mole
 H      0.7130905979    -7.4112848949    -3.7623186501
 F      1.4035172235    -6.9210516864    -4.1142724481
 H      1.4865595403    -6.8439706651    -5.8022748999
 F      1.3974368710    -6.8936359247    -6.7135813861
          4
Energy: -6.324930088894405 Kcal/mole
 H      1.2321913215    -6.0995230115    -3.7375982817
 F      1.3699344678    -6.9249701012    -4.1125021730
 H      1.3923622986    -6.9685617451    -5.8012435899
 F      1.3886730915    -6.8280851293    -6.7074122884
          4
Energy: -6.326451315774705 Kcal/mole
 H      2.0621989039    -6.5730650892    -3.7494788019
 F      1.2672307628    -6.8241788468    -4.1313904871
 H      1.2618826731    -6.9302375915    -5.8259680485
 F      1.4213104434    -6.9312556420    -6.7290022392
          4
Energy: -6.326515200156109 Kcal/mole
 H      2.1293512857    -6.4185181091    -3.8479024954
 F      1.3370443598    -6.7795056768    -4.1356987969
 H      1.1867629023    -6.9269791168    -5.8221981057
 F      1.2917712754    -6.9305956390    -6.7331586770
          4
Energy: -6.3243126455143965 Kcal/mole
 H      1.8446004993    -6.1034967865    -3.8571227734
 F      1.3147958083    -6.8003102363    -4.1303388153
 H      1.2082690744    -6.9814675981    -5.8075491330
 F      1.2416688658    -6.9288041869    -6.7224261844
          4
Energy: -6.325871243692575 Kcal/mole
 H      1.2595890687    -5.8617618889    -3.8686270418
 F      1.4618273416    -6.7028304793    -4.1729168826
 H      1.3281081256    -6.9401160882    -5.8391120169
 F      1.2091688372    -6.9007984333    -6.7475153236
          4
Energy: -6.3258083069658255 Kcal/mole
 H      0.9952081446    -5.8115604386    -3.8687118061
 F      1.3416279800    -6.6144074520    -4.1449706897
 H      1.2827416322    -6.8332591366    -5.8211428967
 F      1.1585814540    -6.7828705038    -6.7283001244
          4
Energy: -6.3254011983881355 Kcal/mole
 H      1.4988411123    -7.3476254621    -3.7471669007
 F      1.2590123765    -6.5644321843    -4.1594525627
 H      1.1955810908    -6.5865031140    -5.8491418119
 F      1.2042742246    -6.7689883008    -6.7477588527
          4
Energy: -6.327200193405417 Kcal/mole
 H      0.7980179174    -7.2991485837    -3.8131555196
 F      1.3319310903    -6.6560832350    -4.1903725408
 H      1.2632628048    -6.5864639186    -5.8800264048
 F      1.1003667454    -6.6972086192    -6.7756208918
          4
Energy: -6.326525875913319 Kcal/mole
 H      0.8121025248    -6.0596849628    -3.8250469852
 F      1.3311839344    -6.7218339159    -4.1897417260
 H      1.3329749372    -6.7862588990    -5.8888375358
 F      1.2292298482    -6.6687441165    -6.7923397396
          4
Energy: -6.327713501830942 Kcal/mole
 H      2.1010341552    -6.9184448738    -3.8752323493
 F      1.3096363090    -6.6108394815    -4.2215809767
 H      1.2169292394    -6.6761964041    -5.9133376992
 F      1.3428627168    -6.7796343555    -6.8157402422
          4
Energy: -6.327803245963764 Kcal/mole
 H      2.0807738038    -7.0098694957    -3.8714574447
 F      1.3522842509    -6.5736150980    -4.2176857966
 H      1.2387071404    -6.5895369597    -5.9079864056
 F      1.3310354899    -6.6976308633    -6.8139004103
          4
Energy: -6.327465165354738 Kcal/mole
 H      1.5096123411    -7.4217461993    -3.8563716768
 F      1.3780597421    -6.5822239052    -4.2010240108
 H      1.3466313937    -6.5195086561    -5.8945720654
 F      1.3614922134    -6.6651233153    -6.7998148654
          4
Energy: -6.324427397010311 Kcal/mole
 H      0.9271958390    -7.1920353763    -3.8137461174
 F      1.4254796385    -6.5404862772    -4.2237290765
 H      1.4598845836    -6.5514192174    -5.9228533367
 F      1.3732636345    -6.6830578775    -6.8262121106
          4
Energy: -6.326684964369861 Kcal/mole
 H      1.6301805835    -7.3441114114    -3.8802587842
 F      1.4139630004    -6.5241777553    -4.2293257638
 H      1.3107648207    -6.5061093546    -5.9215989112
 F      1.3006010969    -6.6721987663    -6.8233749399
          4
Energy: -6.326375904089332 Kcal/mole
 H      2.0215982398    -7.1481612173    -3.8852584209
 F      1.4178525037    -6.5467656709    -4.2239374475
 H      1.2475305625    -6.5415951198    -5.9088692357
 F      1.2805848095    -6.6562252161    -6.8180756797
          4
Energy: -6.325511990866346 Kcal/mole
 H      1.4102225832    -7.3926330186    -3.8330917652
 F      1.3774275618    -6.5547559671    -4.2042730325
 H      1.2740421363    -6.5120230084    -5.9007380007
 F      1.2392818503    -6.6699864757    -6.8033609926
          4
Energy: -6.327535017557921 Kcal/mole
 H      0.7563323968    -7.1087863462    -3.8140733099
 F      1.3937033305    -6.5918859887    -4.2232936823
 H      1.3298521165    -6.5602099630    -5.9162054996
 F      1.1480674738    -6.6558003611    -6.8099089289
          4
Energy: -6.327292144526552 Kcal/mole
 H      0.7333599636    -7.1569814847    -3.8083654837
 F      1.4413925919    -6.7287667777    -4.2036008085
 H      1.3499644289    -6.5842330217    -5.8958175644
 F      1.1341766730    -6.5992085894    -6.7869406629
          4
Energy: -6.326045037328811 Kcal/mole
 H      0.6973299961    -6.4052634907    -3.7865538598
 F      1.4527544376    -6.7155627254    -4.2036117672
 H      1.3515558868    -6.6701644402    -5.8897232331
 F      1.1257815747    -6.5749785734    -6.7733830154
          4
Energy: -6.327296942395435 Kcal/mole
 H      0.7860513866    -7.1230666588    -3.7938726865
 F      1.4942173587    -6.6956383574    -4.1897198831
 H      1.3728947067    -6.4978395407    -5.8698740954
 F      1.1386765165    -6.4838810009    -6.7563480085
          4
Energy: -6.326964984513495 Kcal/mole
 H      1.1879734658    -7.4436879021    -3.8339723953
 F      1.5026980292    -6.6612193325    -4.1939451536
 H      1.3456457367    -6.4998088052    -5.8729365283
 F      1.1917415869    -6.5723969854    -6.7740100374
          4
Energy: -6.327691645702544 Kcal/mole
 H      1.7091143481    -7.4331075677    -3.8769826435
 F      1.4341276927    -6.6103972007    -4.1743359542
 H      1.2486357900    -6.5014033353    -5.8539055273
 F      1.2053491617    -6.6199800281    -6.7621757711
          4
Energy: -6.3266561519940865 Kcal/mole
 H      2.2656677186    -6.3076431533    -3.9155680431
 F      1.4567317802    -6.6525930240    -4.1754165265
 H      1.1859954924    -6.6792069938    -5.8504043668
 F      1.2181604513    -6.6283911603    -6.7654301404
          4
Energy: -6.327271316540418 Kcal/mole
 H      1.9887847167    -6.0377873460    -3.8760013668
 F      1.4741724598    -6.7320454648    -4.1827078869
 H      1.2486471678    -6.7585126572    -5.8600265203
 F      1.2368693690    -6.6277978553    -6.7675858429
          4
Energy: -6.327463882683958 Kcal/mole
 H      2.1298090514    -6.1514556128    -3.8731716539
 F      1.5054332565    -6.7414983105    -4.1939417921
 H      1.2847238081    -6.7113442047    -5.8746947204
 F      1.3033324137    -6.5604253886    -6.7789990003
          4
Energy: -6.3270923405953 Kcal/mole
 H      1.8742298120    -6.0019841162    -3.8373650444
 F      1.5092144445    -6.7652868396    -4.1909491701
 H      1.3404891164    -6.7709082325    -5.8825176825
 F      1.3295322116    -6.6111028425    -6.7854192184
          4
Energy: -6.323825897791494 Kcal/mole
 H      1.4916356239    -5.9304895784    -3.8363124415
 F      1.5284929010    -6.7691558429    -4.2053238748
 H      1.4557111970    -6.8030358614    -5.9043760094
 F      1.4066578008    -6.6565740275    -6.8082740653
          4
Energy: -6.327795898932379 Kcal/mole
 H      2.2453916583    -6.4449959150    -3.8993842649
 F      1.4427738930    -6.7581191136    -4.2134663964
 H      1.2828035111    -6.7258307426    -5.9034579286
 F      1.3739774042    -6.6381892370    -6.8116953907
          4
Energy: -6.326122833488284 Kcal/mole
 H      1.9001252168    -6.0506189638    -3.8849524193
 F      1.4687083173    -6.7855077535    -4.2236365282
 H      1.3548643124    -6.8050442759    -5.9131914104
 F      1.3752220914    -6.6393395176    -6.8148656830
          4
Energy: -6.325839690342605 Kcal/mole
 H      1.7166924826    -5.9841634049    -3.8559731807
 F      1.4784390000    -6.7890330673    -4.2251738099
 H      1.3946017331    -6.7892364909    -5.9263632494
 F      1.4007840939    -6.6167280810    -6.8269695047
          4
Energy: -6.327199962684233 Kcal/mole
 H      1.7357494923    -6.1629053378    -3.8116518095
 F      1.4615482345    -6.9236228693    -4.2441000808
 H      1.3875639951    -6.8300234171    -5.9352721108
 F      1.4011574296    -6.6145644288    -6.8264969101
          4
Energy: -6.32722164093741 Kcal/mole
 H      2.0427590332    -6.2362713036    -3.8505403913
 F      1.5314537460    -6.8919486055    -4.2372485228
 H      1.3653516273    -6.7955150806    -5.9221400971
 F      1.3863333736    -6.6022209239    -6.8182908296
          4
Energy: -6.326446236356048 Kcal/mole
 H      0.8192293616    -6.6325034435    -3.8110999910
 F      1.6095990790    -6.8489342800    -4.2226366271
 H      1.5567422776    -6.7124889303    -5.9099136345
 F      1.3410917013    -6.5746975851    -6.7904801420
          4
Energy: -6.3271538861835666 Kcal/mole
 H      1.7377579998    -6.0945402731    -3.8070904535
 F      1.5785740000    -6.8934706206    -4.2281127261
 H      1.3592229726    -6.7949427043    -5.9027603697
 F      1.2723783872    -6.5687016959    -6.7871596145
          4
Energy: -6.327365509588958 Kcal/mole
 H      1.8671838466    -6.1099291483    -3.8204338751
 F      1.5540450711    -6.8705686421    -4.2257247186
 H      1.3381945002    -6.7700789933    -5.9042108755
 F      1.2765694662    -6.5399293473    -6.7897177901
          4
Energy: -6.326136062929095 Kcal/mole
 H      2.2776142666    -6.4219345711    -3.9070302161
 F      1.5322726858    -6.8540174754    -4.2211309828
 H      1.2184549899    -6.7002168519    -5.8776453195
 F      1.1927992983    -6.5271052744    -6.7777915117
          4
Energy: -6.327392433790578 Kcal/mole
 H      2.3158381097    -6.5443280767    -3.9750578067
 F      1.5027475741    -6.8720335469    -4.2440966622
 H      1.1656474007    -6.6989331375    -5.8948622417
 F      1.1554116329    -6.5306091186    -6.7962230206
          4
Energy: -6.327419707067861 Kcal/mole
 H      2.3275309248    -6.5122693872    -3.9747609730
 F      1.5176627506    -6.8533983814    -4.2367410291
 H      1.1770757785    -6.6954169997    -5.8854082022
 F      1.1543736619    -6.5254446851    -6.7862317289
          4
Energy: -6.3269084715909685 Kcal/mole
 H      2.4264734499    -6.9681225026    -4.0266847761
 F      1.5373867051    -6.8640681847    -4.2256482378
 H      1.1844209488    -6.6259379801    -5.8674980468
 F      1.1792063623    -6.4985889300    -6.7755971755
          4
Energy: -6.327157056528961 Kcal/mole
 H      2.4417014384    -6.8501557350    -4.0330014379
 F      1.5442685841    -6.8768162390    -4.2195288877
 H      1.1769680703    -6.6506788187    -5.8623346137
 F      1.1701694022    -6.5107240853    -6.7685660691
          4
Energy: -6.326088024986518 Kcal/mole
 H      2.2476913622    -6.3989978947    -3.9405163509
 F      1.5578890065    -6.9249130604    -4.2379637388
 H      1.2336515572    -6.7640337442    -5.8865353306
 F      1.1900912166    -6.5561847159    -6.7786061115
          4
Energy: -6.327061216964921 Kcal/mole
 H      2.3091677194    -6.4666341610    -3.9501607540
 F      1.5416432932    -6.8903918661    -4.2189072191
 H      1.1966784657    -6.7308910284    -5.8751177909
 F      1.1771977597    -6.5346850854    -6.7706694254
          4
Energy: -6.326674572816557 Kcal/mole
 H      2.3840495447    -6.5948177446    -3.9418489311
 F      1.5546001497    -6.8784122400    -4.2110642047
 H      1.1944117417    -6.6921701079    -5.8563194277
 F      1.1641283117    -6.5191426998    -6.7563379997
          4
Energy: -6.326424607883951 Kcal/mole
 H      2.3260066131    -6.5196380386    -3.9444429206
 F      1.5466584856    -6.9164456146    -4.2202131943
 H      1.1979236526    -6.7085519938    -5.8604445822
 F      1.1744371141    -6.5091060356    -6.7551840371
          4
Energy: -6.3277710871935255 Kcal/mole
 H      2.3529450976    -6.5714101502    -3.9579618803
 F      1.5430480019    -6.9133683344    -4.2187688866
 H      1.1831961209    -6.7122025747    -5.8655738189
 F      1.1524636721    -6.5161915044    -6.7608526452
          4
Energy: -6.327464907080241 Kcal/mole
 H      2.0105614613    -6.2771952177    -3.8264755129
 F      1.5053059291    -6.9354882377    -4.2166756500
 H      1.2166265115    -6.7436974068    -5.8758285530
 F      1.1656427744    -6.4920372908    -6.7561448851
          4
Energy: -6.32644396897399 Kcal/mole
 H      2.0682565955    -6.2950092312    -3.8787933115
 F      1.5039592079    -6.9322693897    -4.2199046549
 H      1.2122355104    -6.7686807142    -5.8823979993
 F      1.1835590729    -6.5230291603    -6.7654166718
          4
Energy: -6.327028509693832 Kcal/mole
 H      2.0752871677    -6.3059602885    -3.8703370722
 F      1.5035862523    -6.9316884614    -4.2203532388
 H      1.1995222156    -6.7553435946    -5.8814751362
 F      1.1626124362    -6.5061431113    -6.7631926574
          4
Energy: -6.327462147644212 Kcal/mole
 H      2.1573548154    -6.3666752009    -3.8701534319
 F      1.5164931226    -6.9253896571    -4.2136988395
 H      1.1585469635    -6.6829105707    -5.8561543447
 F      1.0915933983    -6.4245613034    -6.7334580984
          4
Energy: -6.327661913266127 Kcal/mole
 H      2.2494315086    -6.4996916862    -3.9129614797
 F      1.5102946549    -6.9464140398    -4.2211900479
 H      1.1462967607    -6.6781492379    -5.8539239749
 F      1.0922432433    -6.4248138811    -6.7335764143
          4
Energy: -6.327789266120533 Kcal/mole
 H      2.2780630606    -6.5095739471    -3.9329437780
 F      1.5381664782    -6.9630105112    -4.2293174098
 H      1.1423859639    -6.6845184222    -5.8546391323
 F      1.0783835769    -6.4162795883    -6.7291908017
          4
Energy: -6.327683822617985 Kcal/mole
 H      2.2853477041    -6.5771583120    -3.9372133801
 F      1.5140986700    -6.9810863416    -4.2251475295
 H      1.1373165414    -6.6958078425    -5.8542793620
 F      1.0978566636    -6.4365933486    -6.7329941987
          4
Energy: -6.325936211844464 Kcal/mole
 H      2.3832078521    -6.8523101475    -4.0132438820
 F      1.4994978443    -6.9768817561    -4.2240222881
 H      1.1252788053    -6.6811843932    -5.8561584069
 F      1.0987415724    -6.4761089852    -6.7495389822
          4
Energy: -6.3272428389549304 Kcal/mole
 H      2.3387632154    -6.7900155512    -3.9895341025
 F      1.4770580350    -6.9888044535    -4.2320957534
 H      1.1089414073    -6.6912143188    -5.8637018923
 F      1.0979062174    -6.4787055600    -6.7556700823
          4
Energy: -6.327028580145395 Kcal/mole
 H      2.2756224775    -6.7097294903    -3.9441716344
 F      1.4343005506    -6.9450724540    -4.2228831427
 H      1.1153291882    -6.6926220113    -5.8657394620
 F      1.1043916428    -6.4984965962    -6.7618893899
          4
Energy: -6.326850888849492 Kcal/mole
 H      2.1675118514    -6.5063415701    -3.9183017465
 F      1.4363991761    -6.9660631221    -4.2265538359
 H      1.1218695025    -6.7585709524    -5.8846497518
 F      1.0989424598    -6.5277348324    -6.7718239378
          4
Energy: -6.327861022334105 Kcal/mole
 H      2.1802038499    -6.4997631549    -3.9131479829
 F      1.4633612503    -6.9746732233    -4.2317168362
 H      1.1309647910    -6.7411200727    -5.8758748300
 F      1.0990897174    -6.5018198624    -6.7605263937
          4
Energy: -6.327097918953996 Kcal/mole
 H      2.2334744927    -6.5633477824    -3.9463193381
 F      1.4534598394    -6.9533911798    -4.2297488509
 H      1.1312046967    -6.7189875487    -5.8731899159
 F      1.1204965763    -6.4949255481    -6.7623302626
          4
Energy: -6.327484338561135 Kcal/mole
 H      2.2698828683    -6.6582156698    -3.9426330927
 F      1.4528975355    -6.9625356489    -4.2269099232
 H      1.1237896012    -6.7110644581    -5.8686547345
 F      1.1164218006    -6.4924435952    -6.7591824621
          4
Energy: -6.327704669355796 Kcal/mole
 H      2.2770617303    -6.7039619732    -3.9542521541
 F      1.4413969791    -6.9658700796    -4.2262035604
 H      1.1165977936    -6.7018226891    -5.8664104743
 F      1.1168033094    -6.4929338496    -6.7593015150
          4
Energy: -6.327814683651525 Kcal/mole
 H      2.2917810031    -6.7105268692    -3.9486411406
 F      1.4538634469    -6.9598318696    -4.2254627184
 H      1.1282823801    -6.7052020815    -5.8724039858
 F      1.1260646331    -6.5019998033    -6.7666035808
          4
Energy: -6.327686563171028 Kcal/mole
 H      2.3299273234    -6.7844529474    -3.9922042691
 F      1.4538810952    -6.9257950192    -4.2234063985
 H      1.1193267511    -6.6772102685    -5.8665495513
 F      1.1265397086    -6.5034847043    -6.7669141450
          4
Energy: -6.327727813006788 Kcal/mole
 H      2.3156898068    -6.7377713764    -3.9730545500
 F      1.4546363625    -6.9282713687    -4.2244222468
 H      1.1250594842    -6.6894887747    -5.8689836135
 F      1.1262356003    -6.5028333580    -6.7667850237
          4
Energy: -6.327683226278282 Kcal/mole
 H      2.1680630782    -6.4586066938    -3.8992344976
 F      1.4624676193    -6.9430804100    -4.2283382300
 H      1.1695040926    -6.7420921422    -5.8851420104
 F      1.1601859284    -6.5229289440    -6.7755181468
          4
Energy: -6.327826931143875 Kcal/mole
 H      2.1969352573    -6.4914223408    -3.9163536392
 F      1.4609360169    -6.9413396157    -4.2274300991
 H      1.1637970181    -6.7399268257    -5.8845715235
 F      1.1604886755    -6.5230438091    -6.7755484099
          4
Energy: -6.327600481080253 Kcal/mole
 H      2.0769775356    -6.3689204659    -3.8684608120
 F      1.4647682211    -6.9489558394    -4.2285270846
 H      1.1809986724    -6.7621278802    -5.8914334365
 F      1.1472745255    -6.5204625514    -6.7753732256
          4
Energy: -6.327738622979496 Kcal/mole
 H      1.9616122617    -6.2785658045    -3.8497731069
 F      1.4708880823    -6.9537489454    -4.2295184242
 H      1.1983874789    -6.7785116547    -5.8917422588
 F      1.1542730431    -6.5264823211    -6.7723239595
          4
Energy: -6.327893175292729 Kcal/mole
 H      2.0972508196    -6.3838018939    -3.8800804352
 F      1.4636927702    -6.9481664140    -4.2279106904
 H      1.1786550808    -6.7652948203    -5.8883312864
 F      1.1506790784    -6.5322731566    -6.7747889828
          4
Energy: -6.327976754283213 Kcal/mole
 H      2.1449087509    -6.4289878918    -3.9007471306
 F      1.4611646271    -6.9457694013    -4.2268143700
 H      1.1629712171    -6.7630126950    -5.8861826438
 F      1.1417917587    -6.5417192307    -6.7758284347
          4
Energy: -6.327884854761578 Kcal/mole
 H      1.9809567571    -6.2903127709    -3.8546278161
 F      1.4698619015    -6.9531257960    -4.2292608931
 H      1.1898625247    -6.7829278549    -5.8924626506
 F      1.1403652370    -6.5406627775    -6.7754952948
          4
Energy: -6.32786113992114 Kcal/mole
 H      2.0510379011    -6.3435158681    -3.8672110317
 F      1.4661442587    -6.9503034946    -4.2285933826
 H      1.1802156622    -6.7748640917    -5.8898080317
 F      1.1408769808    -6.5410905415    -6.7756361162
          4
Energy: -6.327507121486747 Kcal/mole
 H      1.9762402808    -6.2928580716    -3.8466657408
 F      1.4612142749    -6.9481434121    -4.2290769537
 H      1.1856243839    -6.7785953872    -5.8910595256
 F      1.1405900606    -6.5408926049    -6.7755697274
          4
Energy: -6.327828252211191 Kcal/mole
 H      2.0308339932    -6.3252559230    -3.8710430985
 F      1.4583182046    -6.9464247809    -4.2277837912
 H      1.1745085435    -6.7794747796    -5.8908039486
 F      1.1411797302    -6.5408459552    -6.7755832851
          4
Energy: -6.32788442398936 Kcal/mole
 H      1.9626948871    -6.2773026677    -3.8557782565
 F      1.4619328268    -6.9489685903    -4.2285935558
 H      1.1858362157    -6.7868109206    -5.8933213988
 F      1.1405788234    -6.5404567898    -6.7754497402
          4
Energy: -6.327933363172519 Kcal/mole
 H      1.9314191471    -6.2600772105    -3.8467188666
 F      1.4635919325    -6.9498823610    -4.2290741355
 H      1.1922505189    -6.7869134488    -5.8937037676
 F      1.1402385594    -6.5404513510    -6.7754294564
          4
Energy: -6.3278643852804635 Kcal/mole
 H      1.9484502450    -6.2699114848    -3.8503660668
 F      1.4626884721    -6.9493606755    -4.2288806600
 H      1.1900688237    -6.7841351972    -5.8928064207
 F      1.1403542933    -6.5405987308    -6.7754770586
          4
Energy: -6.327958818030709 Kcal/mole
 H      1.9733411245    -6.2858815532    -3.8548875544
 F      1.4613680685    -6.9485135002    -4.2286408055
 H      1.1866620940    -6.7834712530    -5.8924386227
 F      1.1405350125    -6.5406339515    -6.7754965695
          4
Energy: -6.327930729531829 Kcal/mole
 H      2.0359428169    -6.3281949885    -3.8741902918
 F      1.4580471933    -6.9462688703    -4.2276168399
 H      1.1746703672    -6.7768754323    -5.8901133093
 F      1.1411711459    -6.5409838445    -6.7756199220
          4
Energy: -6.327946675483872 Kcal/mole
 H      2.0417158836    -6.3353934524    -3.8711815907
 F      1.4577409455    -6.9458870084    -4.2277764445
 H      1.1761255186    -6.7759757503    -5.8899304510
 F      1.1410939534    -6.5410315706    -6.7756296222
          4
Energy: -6.32796799071167 Kcal/mole
 H      2.0400716323    -6.3331981632    -3.8722600745
 F      1.4578281692    -6.9460034634    -4.2277192335
 H      1.1753387751    -6.7762295140    -5.8899670548
 F      1.1411356884    -6.5410181090    -6.7756276804
