          4
Energy: -6.080850986488031 Kcal/mole
 H      0.9744915958    -3.5069140653     4.8861576929
 F      0.6481824011    -4.3596527907     4.8010226497
 H      1.4301462129    -5.6236356011     5.4715833355
 F      2.0185717984    -6.2522210597     5.7870586144
          4
Energy: -5.930785960668828 Kcal/mole
 H      4.3265814226     3.4665534961    -1.8710281738
 F      4.7300301852     4.2700055777    -2.0515353719
 H      4.1204450938     5.5749917735    -0.9106509142
 F      3.5347544179     5.9926362795    -0.3419431696
          4
Energy: -5.800289037925722 Kcal/mole
 H      3.4519225653     4.0081846284    -1.9377292305
 F      3.0939263745     4.0789880910    -1.0964714834
 H      3.9300280987     3.9477584338     0.5828478550
 F      4.5654457727     3.9649647264     1.2437845562
          4
Energy: -6.228727549519135 Kcal/mole
 H      6.5222826144     5.9815289401     5.2822798922
 F      6.0791412649     5.3795600058     5.8134560837
 H      4.4180387891     5.6924465213     5.5763354809
 F      3.5829467019     5.9976150487     5.3518752934
          4
Energy: -5.860156317382575 Kcal/mole
 H      1.6812754615     4.9385934590     3.9771908054
 F      1.5630681678     5.8467550237     4.0236516286
 H      3.1069571912     6.5911917074     3.8019439258
 F      3.9626516286     6.5853955622     3.4723344075
          4
Energy: -6.026297201265038 Kcal/mole
 H     -1.0602327751     4.1420769317     3.6195596321
 F     -1.2011764517     3.7168161934     4.4196703647
 H     -2.1515709408     4.0596655467     5.8608458736
 F     -2.5421480025     4.4034763299     6.6159171975
          4
Energy: -6.174888904892043 Kcal/mole
 H      2.9440738426    -1.5351966915     4.0635146396
 F      2.2605478738    -1.1929349514     4.5700105935
 H      0.7172420071    -1.5223153940     3.9972468585
 F     -0.1167076383    -1.6988221841     3.6592197265
          4
Energy: -6.066800345125273 Kcal/mole
 H     -1.9625536478     3.8896574674     5.2031084155
 F     -1.9676112392     3.1563851706     4.6524949761
 H     -0.9902589287     2.4139815807     3.4017077930
 F     -0.4159858567     2.1898490769     2.7228381005
          4
Energy: -6.264378039924793 Kcal/mole
 H     -7.0715063200     0.8088537911     4.6069441705
 F     -7.4199296406     1.5412225535     4.1790117160
 H     -6.1853491952     2.6561933170     3.6242046806
 F     -5.3866507005     3.0623720828     3.4292982293
          4
Energy: -6.068840650668335 Kcal/mole
 H     -1.8330898439    -5.2875402207     2.5869716455
 F     -2.0321334810    -4.4739405284     2.9602358564
 H     -3.2840989051    -4.8518280948     4.1061582005
 F     -4.0011247574    -5.2241837016     4.5398795734
          4
Energy: -5.969745727787597 Kcal/mole
 H     -3.9957421129    -4.5921932307    -6.0462201847
 F     -3.8034033773    -5.4580724962    -5.8135231533
 H     -4.7715779655    -6.3620106820    -6.7073740472
 F     -5.4437268047    -6.7360768548    -7.2065528091
          4
Energy: -6.246116277116016 Kcal/mole
 H     -6.7304278593    -5.7810780731    -4.1519255642
 F     -6.9724203386    -5.1643820498    -4.7859718202
 H     -6.6904522185    -3.5190865568    -4.6894625468
 F     -6.4678833697    -2.6377542031    -4.5686097853
          4
Energy: -6.083587334632512 Kcal/mole
 H     -2.3511945818    -4.8126616531    -4.8519970103
 F     -2.7067885542    -4.6335556037    -4.0259443789
 H     -4.3103598995    -4.9189028696    -3.8568051947
 F     -5.1638580572    -5.2542079461    -3.8561723707
          4
Energy: -6.177462518824541 Kcal/mole
 H     -5.4333080318    -4.4648892794    -4.9267618658
 F     -4.8233650382    -5.0006557803    -5.3531569890
 H     -3.2397220094    -4.4934689553    -5.4554529194
 F     -2.4228852848    -4.0931993037    -5.5714312421
          4
Energy: -6.217246378924187 Kcal/mole
 H      3.7673250576    -0.2149530304    -1.2753248779
 F      3.7930365315    -0.8599446609    -0.6240079683
 H      2.3442697985    -1.7571432947    -0.6291505994
 F      1.4899905593    -2.0874496418    -0.6738014507
          4
Energy: -6.226442755239361 Kcal/mole
 H      0.7142312016     6.4443995421     1.1321495051
 F      0.7295137628     6.8299934893     0.3003005097
 H     -0.3146471460     5.9049088781    -0.7743853870
 F     -0.9064266681     5.2957308792    -1.1202006018
          4
Energy: -6.314652226319993 Kcal/mole
 H      6.1165864174    -2.1104875781     4.5369942536
 F      5.4613427352    -1.4995190170     4.3413871619
 H      5.9792429207    -0.0573129214     3.6170359513
 F      6.4539188292     0.6458432659     3.2689796942
          4
Energy: -6.149389235971654 Kcal/mole
 H      4.0291864418     0.3953360990     2.3071943074
 F      4.8086039593     0.7680835353     2.6145323659
 H      6.0566845426     1.6007840276     1.7337894472
 F      6.7333703086     1.9796127699     1.2444284780
          4
Energy: -6.093612060037799 Kcal/mole
 H      1.2013463841     3.4768060864     4.5979167580
 F      0.4233752469     3.5525782694     4.1184290251
 H      0.3642103026     4.9956472972     3.0970666125
 F      0.6349151655     5.6809366717     2.5511853522
          4
Energy: -6.227369137042444 Kcal/mole
 H     -1.0761582784     6.6038923704     1.2716857417
 F     -0.5461995639     5.8557041949     1.2874088133
 H     -0.7355005896     4.5943813613     2.5078431301
 F     -0.9918941099     4.0780015977     3.2209373051
          4
Energy: -6.304817562643564 Kcal/mole
 H     -5.4162920962     4.7128807716     4.2423022137
 F     -5.6433808946     4.8616416809     5.1181959684
 H     -4.6740645649     4.0871017818     6.2467559456
 F     -4.0347424638     3.5948731740     6.6824935371
          4
Energy: -6.272074105293825 Kcal/mole
 H     -3.5184391797     4.2923862425     4.9739193794
 F     -3.1578359372     4.7809079741     4.2867506816
 H     -3.8507832731     6.2891764313     3.7821761203
 F     -4.2845177632     7.0789585543     3.6118599722
          4
Energy: -6.111972169922126 Kcal/mole
 H      1.2316230895     2.2959311431    -4.8007123194
 F      1.4779657508     2.5825934549    -3.9652310137
 H      1.9492655823     1.7836037646    -2.4865275756
 F      2.0794987450     1.2235072730    -1.7722305481
          4
Energy: -6.192663875258916 Kcal/mole
 H     -2.4244332173    -3.7300872854    -2.7177278107
 F     -2.9966692224    -3.1373855833    -2.3150621345
 H     -2.9067444554    -3.5105852274    -0.5996346378
 F     -2.6859438801    -3.9343230505     0.1830417725
          4
Energy: -6.208963526724403 Kcal/mole
 H     -4.5953699349     1.5918338643     2.4561822044
 F     -4.3819983578     0.7107112078     2.5939662176
 H     -4.3229664938    -0.4428339330     1.3154543348
 F     -4.4493438504    -0.9635948366     0.5713267618
          4
Energy: -6.270939473162031 Kcal/mole
 H     -1.7079401935    -3.7178951296     4.1150501900
 F     -2.5498809398    -3.5548678577     4.4397760564
 H     -3.8401186758    -4.6766533283     4.0565176397
 F     -4.3873340601    -5.3537804050     3.7685189500
          4
Energy: -6.229151062672827 Kcal/mole
 H     -2.8343600806    -1.9958426888     4.4264673567
 F     -2.8141170255    -1.5433233459     5.2237787532
 H     -4.1928099584    -0.8192808843     5.7481699025
 F     -5.0199043309    -0.4432433565     5.8722653358
          4
Energy: -6.261305599502748 Kcal/mole
 H     -3.6230579391     0.9984788722    -4.0628984543
 F     -2.8968237201     1.4794398112    -4.3495156803
 H     -1.8213550532     1.5228580295    -3.0667956496
 F     -1.3540261241     1.4089117031    -2.2860851356
          4
Energy: -6.2148585860815615 Kcal/mole
 H     -1.8928816991    -3.9911225415     0.9005990580
 F     -1.1212687170    -3.5271050588     0.7268458372
 H     -1.0430656155    -1.8492132794     0.4529922323
 F     -1.0343180522    -0.9495298542     0.2758419727
          4
Energy: -6.248080047447559 Kcal/mole
 H      1.1655758776    -4.1844820535     0.9153301313
 F      0.7190174301    -3.9373861707     0.1534783231
 H      1.0088082761    -5.0066621225    -1.1391738242
 F      1.3853682485    -5.6542309632    -1.6680841982
          4
Energy: -6.170522137317505 Kcal/mole
 H     -1.5036398025    -3.5855167892    -1.7807337293
 F     -2.0211801888    -3.9219012097    -1.1025844314
 H     -3.4943534142    -3.4862414570    -0.3967844359
 F     -4.2873560848    -3.1768284780    -0.0557574972
          4
Energy: -6.261589273610241 Kcal/mole
 H     -3.9427587567    -3.3514722962    -2.1728875166
 F     -3.7097548649    -3.6267842790    -1.3297970716
 H     -4.1192550856    -2.5132547908    -0.0726208144
 F     -4.4726396957    -1.7940208977     0.3731492210
          4
Energy: -6.149926377693845 Kcal/mole
 H     -5.1741635803    -2.7551034514    -4.6541445628
 F     -5.1863624970    -3.0059377916    -3.7722022063
 H     -6.4415607651    -3.1884277455    -2.6177232326
 F     -7.1520075611    -3.3514471423    -2.0613249703
          4
Energy: -6.265094129565284 Kcal/mole
 H     -3.2414451184    -3.7074428718     0.1273280213
 F     -3.8761419902    -3.3147940938     0.6601280008
 H     -4.9496625345    -2.1874100101    -0.1090750495
 F     -5.4097478684    -1.5799001489    -0.6191164734
          4
Energy: -6.3080485409635685 Kcal/mole
 H     -2.4774473150    -5.1451842133    -1.8827205192
 F     -2.2813143029    -5.0569690527    -2.7741457415
 H     -2.4513618461    -6.4966838307    -3.6571955730
 F     -2.6332748340    -7.3282085349    -3.9983162717
          4
Energy: -6.265409925842846 Kcal/mole
 H     -3.7527244112    -3.4983811308    -4.6136399517
 F     -4.6293288870    -3.4222678053    -4.8718266183
 H     -5.4978664562    -4.8284867479    -4.5176939605
 F     -5.8761926088    -5.6285936480    -4.2777204814
          4
Energy: -6.310590193837186 Kcal/mole
 H     -6.0147292368    -4.3268233056    -2.9364314576
 F     -6.0551428808    -4.4575277574    -3.8431685109
 H     -5.0807608323    -3.4194635916    -4.7139704268
 F     -4.4924445888    -2.7980925246    -5.0436232664
          4
Energy: -6.150160372583343 Kcal/mole
 H     -5.2299544233    -5.0592510776    -2.5773703472
 F     -5.9044698688    -5.6750714005    -2.6591214549
 H     -7.0677200553    -4.6934933090    -3.4103162782
 F     -7.4705464176    -3.9556583520    -3.7766760715
          4
Energy: -6.27265255281651 Kcal/mole
 H     -1.8588661232    -3.2829226806    -3.2641121447
 F     -2.3862953151    -3.7602347953    -3.8428008284
 H     -4.0344962600    -3.4375952865    -3.8998761045
 F     -4.8793320894    -3.0853267452    -3.8446647278
          4
Energy: -6.307709844703311 Kcal/mole
 H     -0.5648320975    -2.7885306611    -4.0976918640
 F     -1.0732752199    -2.7801045453    -3.3346036700
 H     -1.0526448255    -4.2650798822    -2.4546066710
 F     -0.9247866457    -5.1235559300    -2.1587010083
          4
Energy: -6.24630637849134 Kcal/mole
 H     -3.5906189857    -0.1761241403    -5.4733011301
 F     -3.4021154080    -0.9240356931    -4.9773336812
 H     -4.4762768553    -2.1211937003    -5.5536043806
 F     -5.1206138065    -2.5339646802    -6.0589151873
          4
Energy: -6.308954669201114 Kcal/mole
 H     -3.6309128959    -0.5706937522    -6.1842325038
 F     -4.1131445959    -0.3697952579    -5.4305871080
 H     -4.5569726720    -1.8082858122    -4.6254491066
 F     -4.6768280531    -2.6765753062    -4.3560107238
          4
Energy: -6.293941603342034 Kcal/mole
 H     -4.3736954740    -2.2110254163    -6.7946159419
 F     -5.1462242839    -2.1851949801    -6.3012387774
 H     -5.6580878762    -3.7603654976    -5.9802979824
 F     -5.7106298180    -4.6740795144    -5.9232450256
          4
Energy: -6.2753658386915845 Kcal/mole
 H     -5.1476963906    -7.3545828079    -3.1765719649
 F     -5.4722135424    -6.8613489054    -2.4749325022
 H     -4.9075547664    -5.2869792334    -2.3874385757
 F     -4.5845157825    -4.4332457115    -2.4750393088
          4
Energy: -6.32540062832004 Kcal/mole
 H     -4.6456883951    -0.6666749260    -1.6175475969
 F     -3.9060227643    -1.1937856872    -1.4913018046
 H     -3.2100273352    -1.1691627706     0.0518538931
 F     -2.9542419637    -1.0509594020     0.9244882996
          4
Energy: -6.268600501844958 Kcal/mole
 H     -5.8304014508    -1.1513620663     1.2071804268
 F     -5.9962129730    -1.7145975401     0.5027932179
 H     -4.7727226614    -2.8476489356     0.1790739883
 F     -4.0884704388    -3.4576389486     0.1545774609
          4
Energy: -6.2446349168151585 Kcal/mole
 H     -6.8814304715     0.0683365839    -0.0215101062
 F     -6.0938844418     0.1669253309    -0.4807927098
 H     -4.5349690871    -0.3349413861     0.1215437876
 F     -3.8272694658    -0.6878737880     0.5857516782
          4
Energy: -6.268511495513849 Kcal/mole
 H     -5.8933417012    -0.8988690335    -0.0766662889
 F     -5.3000771669    -1.0829179250     0.5979092798
 H     -3.9774898738    -2.0152531526     0.0851622677
 F     -3.3391089863    -2.5602321331    -0.2841028852
          4
Energy: -6.285619588902819 Kcal/mole
 H     -3.5067538932    -1.2730396275     2.2075001907
 F     -4.0394055846    -1.7852781553     1.6645610906
 H     -3.7739677419    -1.6539222504     0.0027116144
 F     -3.4618946770    -1.4150414095    -0.8258023239
          4
Energy: -6.289682604350787 Kcal/mole
 H     -2.3663721747     2.5498707730     1.9503116304
 F     -2.5586018737     2.7536062651     1.0771400596
 H     -1.1692048206     2.6486457079     0.0396787094
 F     -0.3361819280     2.5564965944    -0.3324374032
          4
Energy: -6.316009256724669 Kcal/mole
 H     -2.7216740565     2.0165328888     0.8379151120
 F     -2.1515230839     1.9878552117     1.5555462562
 H     -0.6000596622     2.4948280286     1.1423427728
 F      0.1736740234     2.7688057827     0.7334890411
          4
Energy: -6.3216764398164855 Kcal/mole
 H     -3.0041131720     3.2894940036     0.5189273086
 F     -2.8713307106     3.1338161352     1.4128077364
 H     -1.2429779430     3.3022256751     1.9029917666
 F     -0.3371499066     3.4216016537     1.9811834800
          4
Energy: -6.292142699812985 Kcal/mole
 H     -4.0579256553     3.9232090175     1.4258354464
 F     -3.3342469707     3.6535855350     1.9202859890
 H     -1.8311311220     3.2971534487     1.1650163999
 F     -1.0805857797     3.1717298075     0.6533137526
          4
Energy: -6.316034436001871 Kcal/mole
 H     -4.0380192233     2.8123561948     2.3940243719
 F     -3.8671056864     3.4035718731     1.7142144097
 H     -2.1989743510     3.5132364800     1.3486981149
 F     -1.2887596648     3.4211170703     1.2861502190
          4
Energy: -6.3207889440831195 Kcal/mole
 H     -4.0447271715     1.9820116614     0.7054301949
 F     -3.8665595052     2.7726181918     1.1344833348
 H     -2.4370022748     3.5648877658     0.6667466523
 F     -1.6339295657     3.8535825006     0.3311597427
          4
Energy: -6.31628095006721 Kcal/mole
 H     -4.3722892444     2.5794353713    -1.4244651817
 F     -3.9008853716     2.4370949962    -0.6508977274
 H     -3.0343213609     3.7179514572     0.0351690097
 F     -2.6226791470     4.4939006190     0.2984988145
          4
Energy: -6.322252864226414 Kcal/mole
 H     -4.6331115855     2.8184355205    -0.6145315929
 F     -4.1902340652     2.7327487985     0.1838456912
 H     -2.7395988778     3.5772845760     0.3167102864
 F     -1.9811277487     4.0819993711     0.2124341053
          4
Energy: -6.32218471778225 Kcal/mole
 H     -3.7117126817     2.0271733401    -0.8164316437
 F     -3.6799027751     2.2783867132     0.0649133347
 H     -2.6534827977     3.6064261789     0.3753993071
 F     -2.0537395617     4.2998601492     0.3567880273
          4
Energy: -6.325906298065206 Kcal/mole
 H     -3.2204076934     1.5438022342    -0.4197930958
 F     -3.6433352034     2.2813311581    -0.0761764377
 H     -2.6132477671     3.5769243810     0.3076637765
 F     -1.9200036075     4.1551054511     0.4689343112
          4
Energy: -6.327838422010473 Kcal/mole
 H     -3.2233200838     1.5315947159    -0.3960722998
 F     -3.6431807079     2.2819787387    -0.0774347711
 H     -2.6114228810     3.5732811657     0.3130289507
 F     -1.9201004135     4.1552987152     0.4686497012
