          4
Energy: -5.5206874019255565 Kcal/mole
 H     -4.4368472083    -5.3043307552     1.3945200432
 F     -3.7755455560    -4.8924677477     0.9108486797
 H     -3.6795690033    -6.0510557791    -0.2697871806
 F     -3.9285780851    -6.8851915556    -0.5580595926
          4
Energy: -5.929286995449047 Kcal/mole
 H     -3.3731411859    -3.2083675263     1.3175246884
 F     -3.0839775527    -2.8699444250     0.5158120232
 H     -3.3666580223    -2.6650232475     3.4610865530
 F     -3.8395435520    -3.3438865166     3.0655957976
          4
Energy: -6.030957243756575 Kcal/mole
 H     -4.6480088866    -0.4785428411     2.0418085439
 F     -4.4515596338     0.3168226394     1.6298735447
 H     -4.8814939861    -2.8655154516     2.5774919093
 F     -4.8899455578    -1.9679800338     2.7652357369
          4
Energy: -6.001672281896845 Kcal/mole
 H     -1.6091542234    -4.0499783998    -5.3048849156
 F     -1.6645881871    -3.7339534274    -4.4458480756
 H     -0.8233649276    -5.4416140580    -6.7785506306
 F     -1.1920363102    -4.6024178230    -6.8053851376
          4
Energy: -6.055386739975461 Kcal/mole
 H      0.4642206467    -5.8575053003    -0.8950852038
 F      1.2846776434    -6.1701836422    -0.6305638036
 H     -1.0169140475    -6.6993687944    -2.0270568674
 F     -1.0183415913    -5.8835685344    -1.6083004968
          4
Energy: -6.051356926275503 Kcal/mole
 H      1.3305802130    -5.2617210255    -6.8690619307
 F      1.5645815475    -6.0101022716    -6.3936064797
 H      1.0087895931    -2.8091256267    -6.9639968774
 F      0.8340877804    -3.6236829667    -7.3472260730
          4
Energy: -5.958081660660184 Kcal/mole
 H      0.1823130511    -5.5211719551     0.8033664968
 F      0.1950837961    -4.6164723189     0.6542206742
 H      0.0414100812    -3.0286316400     1.5469070131
 F     -0.0264667818    -2.2670904789     2.0532041506
          4
Energy: -5.719181943744957 Kcal/mole
 H     -6.0741664582    -1.1128259439     1.3308753882
 F     -5.4654213933    -0.8312970101     1.9562232158
 H     -3.6564274236    -0.8237766983     1.6719494669
 F     -2.8785738329    -1.1648214723     1.3262310070
          4
Energy: -6.183931425597052 Kcal/mole
 H     -3.0099491468    -5.9502362406    -3.6817286611
 F     -3.8338162054    -6.3526440610    -3.6958713587
 H     -4.6660297913    -6.6662623964    -2.3209481635
 F     -5.0360381140    -6.8507967727    -1.5024557047
          4
Energy: -5.972020946673865 Kcal/mole
 H     -1.3378306408    -2.4472876872    -4.4081806557
 F     -0.7421479622    -2.3009520539    -5.0898235452
 H     -1.1517602580    -1.5596856893    -6.5306416983
 F     -1.2845755711    -1.1005940712    -7.3132552548
          4
Energy: -6.057795479579511 Kcal/mole
 H     -4.6561822233    -4.3217771888     7.3303356434
 F     -4.3825308610    -5.1569810502     7.0687282242
 H     -4.8744284231    -5.3562801101     5.3761515974
 F     -5.3711862535    -5.2204701742     4.6174182324
          4
Energy: -5.459885551699017 Kcal/mole
 H      0.1644291038    -2.6903393600     4.2345920641
 F     -0.4789311495    -2.2235728299     3.7773114163
 H     -2.2275729340    -1.5922549849     3.9460373841
 F     -2.9940078344    -1.4304626213     4.4227865577
          4
Energy: -5.970613884121377 Kcal/mole
 H      4.5140247144    -6.3388701915     6.5675107148
 F      3.7450648045    -6.4308098515     7.0585674894
 H      2.2259738963    -7.0655176633     6.4713515467
 F      1.4232741798    -7.1935787417     6.0468959832
          4
Energy: -5.822794303809388 Kcal/mole
 H      5.6718531460    -0.7246224784     2.5135778736
 F      5.2717425100     0.0280403640     2.1754963380
 H      3.6315517699     0.8434161823     1.9170905682
 F      2.7370059145     1.0334238534     1.8494607116
          4
Energy: -5.835389165276041 Kcal/mole
 H      6.8666107295     6.6289451735    -5.3949636521
 F      6.2462196613     7.1142165258    -4.9253727267
 H      5.9443974620     7.2193722180    -3.1262051100
 F      6.1347979232     7.2032424142    -2.2293347215
          4
Energy: -6.2561083114014195 Kcal/mole
 H     -2.2010822903     5.6403522376    -5.1850128926
 F     -2.6752348190     4.9317590857    -4.8474271634
 H     -2.7247196672     3.3542913574    -5.5523898115
 F     -2.7062284829     2.5508123352    -5.9939422286
          4
Energy: -5.862742127654599 Kcal/mole
 H      2.4445583440     5.0626145815     1.7002741420
 F      2.4778208426     5.9726789743     1.8078167255
 H      3.3592963069     6.8649089840     0.6093257626
 F      3.8142042589     7.4190739670     0.0376187338
          4
Energy: -5.7393965595101974 Kcal/mole
 H      4.9519004093    -1.0033830453     6.3257327754
 F      4.9920371239    -0.3701811633     6.9878003103
 H      4.5379563480     1.3132099746     7.3808927505
 F      4.5190796293     2.2278299714     7.4441614708
          4
Energy: -5.8956517144773954 Kcal/mole
 H      1.0975804752    -5.8376395730     3.0503224923
 F      0.5476387173    -6.0022740583     2.3352360995
 H     -0.7742055575    -4.8625747519     1.6646557946
 F     -1.3113649087    -4.1631467872     1.4133604431
          4
Energy: -6.2166603086393195 Kcal/mole
 H     -5.0629952329    -2.4004958144    -5.2329485100
 F     -4.8321127947    -3.1107158758    -4.7008115313
 H     -3.2081273803    -3.3314330439    -4.1388389289
 F     -2.3381084512    -3.4064015714    -3.8589536258
          4
Energy: -6.110703858466337 Kcal/mole
 H     -2.3379815191    -4.8601712662    -5.0431438951
 F     -2.3287556165    -4.1533010413    -4.4590733789
 H     -3.6791721666    -3.9591634009    -3.2838685194
 F     -4.4879981542    -4.0765493508    -2.8680439644
          4
Energy: -6.164984253463558 Kcal/mole
 H      4.4624881418    -6.1912757921     3.1935647118
 F      3.7367786352    -6.6389136559     3.5309888586
 H      2.4134242012    -5.4851988126     3.8501680902
 F      1.9642161942    -4.6862951204     3.8793923442
          4
Energy: -6.231564915447507 Kcal/mole
 H     -1.0223155205    -3.3834454823    -0.1483756683
 F     -1.9284158355    -3.3133909185    -0.2707013700
 H     -2.1561135758    -1.7057981350    -0.7269749015
 F     -2.0687359100    -0.8297233394    -0.9833868672
          4
Energy: -6.005974330879155 Kcal/mole
 H      5.6997701668    -6.4895925600     1.9451995181
 F      5.9150564108    -6.2599774422     2.8064879314
 H      4.9538164742    -6.1314185604     4.1284616252
 F      4.3862422366    -5.9635804005     4.8288749581
          4
Energy: -6.1813247557064415 Kcal/mole
 H     -0.8978694850    -4.6635403237    -0.6303148121
 F     -1.3767882872    -5.1748982927    -0.0386740355
 H     -0.2288701390    -5.9237213163     1.0227048629
 F      0.5627917109    -6.2591751543     1.3415014093
          4
Energy: -6.092556004254249 Kcal/mole
 H      1.2313026668    -6.0824766206    -6.5689201009
 F      0.7782327122    -5.3769910042    -6.1975622395
 H     -0.7882722359    -4.7002779763    -6.1225411052
 F     -1.6314138975    -4.3401912706    -6.1041372231
          4
Energy: -6.2593066010490475 Kcal/mole
 H     -4.0326896305    -2.8235212518     6.8791446397
 F     -3.6249194857    -3.6155999801     7.0964550104
 H     -4.5719415224    -5.0034347133     7.0472448502
 F     -5.2212828015    -5.6504930608     7.0709175793
          4
Energy: -6.203001664042461 Kcal/mole
 H      0.1889470864    -7.0283494523     0.6253910033
 F     -0.7244120204    -6.9506829688     0.6505317948
 H     -1.5069657700    -6.7616695583     2.1428003232
 F     -1.6548804344    -6.6768193437     3.0438057023
          4
Energy: -5.889255213829102 Kcal/mole
 H      0.1953890675    -5.0313944016     0.2454732335
 F     -0.3924841458    -5.5500244158     0.7212010900
 H     -0.0335265577    -6.7189494681     1.9881045086
 F      0.0375141608    -7.3756791722     2.6241456331
          4
Energy: -6.262534787081563 Kcal/mole
 H     -1.6349643981    -1.9617183924     3.7295687798
 F     -1.6482511184    -1.5646286599     4.5560264057
 H     -0.2529542493    -1.7845193451     5.4555415717
 F      0.6021865427    -1.9344682917     5.7507339483
          4
Energy: -6.002804447305351 Kcal/mole
 H      1.2876373204    -6.5756363738     2.1118175488
 F      2.1619899570    -6.3941973930     2.3203274119
 H      3.3195521523    -5.5971780411     1.1736825706
 F      3.8802020900    -5.1745430951     0.5838178830
          4
Energy: -5.779203060605823 Kcal/mole
 H      1.1510544163     1.2172440642    -1.5472684692
 F      0.8688523945     2.0740116905    -1.7121934626
 H     -0.2034392110     2.1502556702    -0.2156144675
 F     -0.5757830785     1.7488154023     0.5199769650
          4
Energy: -6.295490739274328 Kcal/mole
 H     -1.8019317346     1.8020298700     2.1793185282
 F     -0.9476110191     1.7524523131     2.5088138711
 H      0.3649861774     1.3358650518     1.5053207512
 F      0.9928223926     1.1389529613     0.8666218272
          4
Energy: -6.249069033180547 Kcal/mole
 H     -4.4272410468    -2.6325771407    -3.1171493474
 F     -4.2499932367    -3.4670446064    -3.4535066909
 H     -4.1068945053    -4.7484691136    -2.4208897326
 F     -4.0955178876    -5.3880536222    -1.7638575956
          4
Energy: -6.243302408076488 Kcal/mole
 H      0.4518784503    -1.6897367959     3.2644559458
 F      0.9335596203    -1.0887853745     3.7621804072
 H      1.3727158358    -1.5502567640     5.3648132936
 F      1.4931897654    -1.8522607260     6.2222330503
          4
Energy: -6.118825356611438 Kcal/mole
 H      5.2358639072     2.5048981127     7.1178130350
 F      5.1059252976     1.6739335414     7.4831934381
 H      5.3708094177     0.3418056684     6.2858871003
 F      5.5649369583    -0.0869345086     5.4988767073
          4
Energy: -6.311006995490857 Kcal/mole
 H      4.4187788147     1.8114386364     4.2615972491
 F      4.7518893845     2.6315588312     4.5010324481
 H      3.7310711458     3.9274406750     4.0965518046
 F      3.0315880447     4.4604692122     3.8367577133
          4
Energy: -6.1530297244210885 Kcal/mole
 H      3.1641712732     1.8763083335    -2.2598872990
 F      3.0018271290     2.6966180785    -1.8835559275
 H      1.4279860431     3.5476347989    -1.8219790307
 F      0.5644337571     3.8561242790    -1.8228097021
          4
Energy: -6.065830769551894 Kcal/mole
 H      1.6895790681     0.0711157405    -2.3170198909
 F      2.0081599329     0.8623236745    -2.6537471363
 H      2.9450427802     1.7012868824    -1.6490570450
 F      3.4924744618     2.1377317377    -1.0568379619
          4
Energy: -6.221065942392443 Kcal/mole
 H     -2.0601442947     2.2539860290    -3.5309396274
 F     -2.4461768801     1.5113770368    -3.9056391440
 H     -1.9693715828     1.2070293588    -5.5846096077
 F     -1.6103096585     1.2916255708    -6.4241374603
          4
Energy: -5.944995559767136 Kcal/mole
 H      1.4067460644    -2.3078179061    -5.6997235862
 F      2.1565435818    -1.9323431435    -5.3286287391
 H      3.7786404537    -2.6710070624    -5.5150102421
 F      4.4587033556    -3.2861514648    -5.5159122774
          4
Energy: -6.174361913917494 Kcal/mole
 H      5.4767992358    -4.1582172230    -0.5498114552
 F      4.9098687062    -4.8532838818    -0.7404973601
 H      5.1958423438    -6.0282013366    -1.9755646613
 F      5.5987503742    -6.5224181687    -2.6345819917
          4
Energy: -6.242683546629337 Kcal/mole
 H      6.3716830060    -4.2061072765     1.3210801375
 F      5.6643465920    -4.0597167272     0.7561606701
 H      6.1751638341    -2.8179754285    -0.2888507894
 F      6.7159568618    -2.1996668438    -0.6964368483
          4
Energy: -6.223971246556914 Kcal/mole
 H      2.8027177263    -3.1244624703     5.0504247501
 F      3.3108452421    -3.0777059617     5.8123363307
 H      2.9148256505    -1.7270030105     6.8215017456
 F      2.6063037403    -0.9124845699     7.1083169141
          4
Energy: -6.231694169841148 Kcal/mole
 H      6.4092266884     0.5902603697     6.5837474964
 F      7.2820464231     0.3227011101     6.4972214694
 H      7.3376840744    -1.2654997906     5.8084587659
 F      7.0344493278    -2.0489481865     5.4408362702
          4
Energy: -6.28593369235773 Kcal/mole
 H      5.1352589451    -1.3843300927     3.4733777834
 F      5.1991472381    -1.4879921990     4.3822570129
 H      6.1917577099    -2.7582739733     5.0215875211
 F      6.7819194354    -3.4462861697     5.1602863148
          4
Energy: -6.264117521907622 Kcal/mole
 H      1.7725195189    -4.3581418282     1.4285502225
 F      1.7838907643    -5.2654643555     1.2961662118
 H      1.7175432347    -6.0624730726     2.7858040853
 F      1.5914475226    -6.3137677729     3.6586384597
          4
Energy: -6.324311593240509 Kcal/mole
 H     -1.2031744987     0.2038918263     1.5299029931
 F     -1.8395507615     0.0529250029     2.1726496542
 H     -1.7691466720    -1.4894933606     2.8920972824
 F     -1.6019463366    -2.3484050727     3.1663302464
          4
Energy: -6.2661356535040795 Kcal/mole
 H     -1.2820282306     0.0494785479    -1.4709774201
 F     -1.2559385093    -0.8363159094    -1.2352307216
 H     -2.7290547793    -1.7066180417    -1.1803340201
 F     -3.5570363029    -2.0995989711    -1.1503076031
          4
Energy: -6.30315032520889 Kcal/mole
 H     -1.5145070119    -1.9809019879     0.1064723167
 F     -2.2511346107    -2.5225370834     0.1764737747
 H     -3.5252108469    -2.4090938654    -0.9555868998
 F     -4.1447289180    -2.2202755550    -1.6047663860
          4
Energy: -6.316681313030415 Kcal/mole
 H     -1.8227847113    -6.6510383061    -0.5450801950
 F     -2.2406789759    -6.9426121824    -1.3074698974
 H     -1.2719661588    -7.3201495810    -2.6677350106
 F     -0.6282783369    -7.4631367440    -3.3050023479
          4
Energy: -6.320661618766508 Kcal/mole
 H     -0.9471940784    -7.2791605884    -0.6140750589
 F     -1.2989967752    -7.3293694800    -1.4594169600
 H     -0.7399731028    -6.1753688650    -2.5900085081
 F     -0.3452221662    -5.5051227684    -3.0756327128
          4
Energy: -6.275880815150629 Kcal/mole
 H     -0.5701220769    -6.3620429555    -1.4112971198
 F     -1.2097592412    -7.0152950622    -1.4821136644
 H     -2.1056827916    -6.7388096582    -2.9365499318
 F     -2.4215775044    -6.3971123347    -3.7267033786
          4
Energy: -6.323976712998217 Kcal/mole
 H     -0.0972741512    -6.0831195584    -1.7183236348
 F     -0.0103258790    -6.6830183482    -2.4064009851
 H     -1.3482926859    -6.8612985326    -3.4344579263
 F     -2.1440001362    -6.8561120913    -3.8902119765
          4
Energy: -6.327385065636065 Kcal/mole
 H     -0.1026718087    -6.0381330370    -1.7612051104
 F     -0.0100395458    -6.6854047792    -2.4041262219
 H     -1.3484202096    -6.8833221099    -3.4350466815
 F     -2.1439933714    -6.8549437915    -3.8901807444
