          4
Energy: -6.327892660209272 Kcal/mole
 H      2.0885618191    -6.5292872296    -3.7759773407
 F      1.5149548390    -7.1190668096    -4.1809762041
 H      1.5233635805    -7.0797727461    -5.8782672928
 F      1.6553500981    -6.9262128635    -6.7726318279
