          4
Energy: -6.327971489755328 Kcal/mole
 H     -3.0431482116    -4.4744095690    -6.3974174468
 F     -2.2621319596    -4.3245766027    -6.8539836483
 H     -1.0403464768    -5.4686472533    -6.5762150695
 F     -0.5054194378    -6.1655751951    -6.3134727874
