          4
Energy: -6.327366418295526 Kcal/mole
 H     -6.1295378358    -3.8839458746    -6.4545652719
 F     -5.4438839870    -4.4789174621    -6.3250407199
 H     -3.9585868118    -3.9815094259    -6.9607301745
 F     -3.2492027132    -3.5587341062    -7.3593831939
