          4
Energy: -1.4032626881794474 Kcal/mole
 Ar    -3.1784716297     5.7955339696     3.5944121374
 Ar    -2.8712223255     2.0471845437     4.2198035464
 Ar     0.0034456654     3.9555322110     2.5722052072
 Ar    -3.2431855901     3.3480557965     0.6492999558
