          4
Energy: -1.402956083630332 Kcal/mole
 Ar     2.5228134165    -2.2759138373     0.7154938552
 Ar     1.2726030658    -4.7966701514    -1.8834336614
 Ar     2.7072598679    -6.0260571362     1.4173088249
 Ar    -0.6933421921    -4.2611392462     1.3420858582
