          4
Energy: -1.4031668952160168 Kcal/mole
 Ar    -3.2670414489     2.9695714073    -3.3615703249
 Ar    -4.2377191217    -0.4168603745    -4.8088011161
 Ar    -0.5846782411     0.7055982161    -4.8234300078
 Ar    -3.1182241624     2.3870713216    -7.1316838597
