          4
Energy: -0.02243184420428776 Kcal/mole
 Ar     3.4087712636    -4.0873800480     2.2453135285
 Ar     4.9809614529     3.5537761000    -4.6736742679
 Ar    -4.1071576980    -4.9976907275     4.3852063206
 Ar     1.0857846510     2.1488939764     4.7929313038
