          4
Energy: -1.4031388783516532 Kcal/mole
 Ar    -3.8416810212     2.2772578647     0.9480560143
 Ar    -2.9759549561     3.3039586363     4.5160324244
 Ar    -1.5733788449     5.2736827905     1.5708668431
 Ar    -5.2791998747     5.4924672418     2.3962963489
