          4
Energy: -2.5977430106775516 Kcal/mole
 Xe    -2.3081641326     2.2670882431    -2.2266668512
 Xe     0.2261777650     4.5158879136     0.6060494989
 Xe     2.0871944008     2.2645266907    -2.7185616782
 Xe     0.2340103769     0.0879129623     0.6417498680
