          4
Energy: -0.13312869378833656 Kcal/mole
 Xe    -2.1448306082     1.2029919304    -2.7711095612
 Xe    -2.8561435320     1.6834648114     4.4806113763
 Xe    -8.0595049953    -1.2127066195    -4.1624724121
 Xe     4.2915045874    -5.0223734443    -6.9670314814
          4
Energy: -1.030650540925786 Kcal/mole
 Xe     0.6403590676     1.1711200650     1.3495074698
 Xe     2.0006188318     7.4311650542    -6.7628687868
 Xe    -0.7884737610     3.9799006803    -3.7373550370
 Xe     3.1417820660     6.4468716414    -1.8811695600
          4
Energy: -0.7990944079006302 Kcal/mole
 Xe    -0.7304726426     7.2994986641    -0.4810731013
 Xe     1.6919398934     4.7808791656     1.7956008992
 Xe     4.6292661407    -5.8940504966    -5.2242883669
 Xe     0.1556454215     7.6819911084     5.5331557857
          4
Energy: -1.8882017690271367 Kcal/mole
 Xe     2.6070752849    -1.4708052462    -0.1784880882
 Xe     3.9826501537    -0.2558859098     4.2800124874
 Xe    -1.5675255629    -0.2807641531    -0.5117966023
 Xe    -0.7484038130    -1.5064443732     3.5053584750
          4
Energy: -1.9127219199369494 Kcal/mole
 Xe     0.2956291098    -4.4852957116     7.0787923690
 Xe     2.5439930025    -1.5556385320     4.5980482798
 Xe     5.5854463202    -4.4944200454     3.1509067079
 Xe     4.2262877210    -3.9589439195     8.1831282628
          4
Energy: -1.9199972980667592 Kcal/mole
 Xe    -3.4001615731    -3.6912157993    -0.9193894669
 Xe    -2.3407729990    -0.7539164589    -4.0249831020
 Xe    -6.3426379671    -3.1633954683    -4.0797256187
 Xe     0.0493381977    -5.7162539159    -2.7620414247
          4
Energy: -2.2013422884323632 Kcal/mole
 Xe    -3.7870408981    -3.3853639466    -5.6175851335
 Xe    -4.2894869632    -7.7466889529    -6.8244033257
 Xe    -7.2785923773    -2.3605801619    -8.0853596101
 Xe    -7.4535053320    -5.6688756421    -4.8349213648
          4
Energy: -2.40756687036861 Kcal/mole
 Xe    -4.6698031101    -5.9406707110     3.9188366414
 Xe    -4.0663778465    -2.1483295241     1.9014279016
 Xe    -8.2123920729    -2.8393559234     3.3210408756
 Xe    -7.1322227016    -5.7944458848     0.2381182500
          4
Energy: -2.458042402409794 Kcal/mole
 Xe    -2.2684878739    -3.6218711251     1.4824166512
 Xe    -6.7880427590    -2.6319075309     0.9377314049
 Xe    -5.3064719707    -6.8441128910     2.3454612188
 Xe    -5.0677368758    -5.5129874626    -1.7334489163
          4
Energy: -2.597586969764337 Kcal/mole
 Xe    -2.5439731370    -3.2864862421     1.2698251242
 Xe    -6.9134446087    -2.6412856322     0.9317135943
 Xe    -5.3521959648    -6.5432027100     2.2497114676
 Xe    -4.8202335570    -5.2560973878    -1.9516455592
