          4
Energy: -0.07438958868694583 Kcal/mole
 Xe     3.7421100726     4.5273986149    -2.0341352863
 Xe    -1.0757185685    -2.9045011148    -2.8517744138
 Xe    -3.3754955182     1.5921630428     5.4137397642
 Xe     5.1250724061    -1.1498082362     3.2863755898
