          4
Energy: -2.5972997470496777 Kcal/mole
 Xe     7.3582717148    -1.1745714336    -4.2745450392
 Xe     5.7042512475     1.9452419339    -1.6196541199
 Xe     6.8660822553    -1.9973716423     0.0196837928
 Xe     3.3161108392    -1.6224376111    -2.5916197955
