          4
Energy: -2.597586969764337 Kcal/mole
 Xe    -2.5439731370    -3.2864862421     1.2698251242
 Xe    -6.9134446087    -2.6412856322     0.9317135943
 Xe    -5.3521959648    -6.5432027100     2.2497114676
 Xe    -4.8202335570    -5.2560973878    -1.9516455592
