          4
Energy: -2.597722050481498 Kcal/mole
 Xe     3.4299610117     4.3130328518    -1.3263332838
 Xe     3.6787178029     2.1158433486    -5.1627221818
 Xe     1.2238375722     5.7637852175    -4.8770102629
 Xe     5.6269840305     6.0511781241    -4.7451174844
