          4
Energy: -0.8207948451616072 Kcal/mole
 Xe     1.2022142440     0.5634968202     6.8110530952
 Xe    -0.8596748495    -4.0567013212    -3.2449137207
 Xe    -0.4952606680    -0.0233024772    -1.6371519883
 Xe     3.9923220604     0.7041099067     2.2289188835
          4
Energy: -1.7680542640527783 Kcal/mole
 Xe     2.8200120854     2.2937350171     1.4991808692
 Xe    -0.3951340038     0.0167284703    -4.0634082751
 Xe     3.0810178808    -2.1728678707     2.1063944946
 Xe     3.7003234448    -0.2331175971    -1.8301936491
          4
Energy: -0.4962581674959674 Kcal/mole
 Xe    -1.5911346087     6.2441795591     4.4221416883
 Xe     1.4941013193     6.4782407101     7.8372719321
 Xe     6.6414148432     4.7011564884    -1.3534603078
 Xe     7.2029843567    -1.6564434424     0.4935921380
          4
Energy: -1.6628490233602098 Kcal/mole
 Xe    -2.9325307827     2.6070038789     2.0685469326
 Xe     0.1037762824     3.0790495901    -0.9607312415
 Xe    -5.0122725301     5.3479332583    -2.8930631395
 Xe    -3.2360143739     1.5246446646    -3.6654456273
          4
Energy: -2.4655228610960394 Kcal/mole
 Xe    -0.3871276994     3.8669805438    -6.5061772656
 Xe     0.2434293856     0.8007630685    -3.1973441369
 Xe     2.5097493180     4.5491082608    -3.0521033893
 Xe     3.5737299366     1.8580372221    -6.6072926159
          4
Energy: -2.212735932758868 Kcal/mole
 Xe     3.7409305737     2.4003508708    -7.9473890373
 Xe    -0.0517475410     2.9208600524    -6.4793563036
 Xe     3.7446806370     5.5503882728    -4.7697275013
 Xe     3.0727325317     1.2628951145    -3.3027706035
          4
Energy: -2.357813009505424 Kcal/mole
 Xe     0.6599749885    -2.1876184168    -7.7395858998
 Xe     0.1629096324     2.1714444903    -6.7496701480
 Xe     2.5710021496    -1.3624556876    -3.8487956832
 Xe    -1.7458470888    -0.6250900619    -3.8640300656
          4
Energy: -2.4490561288506827 Kcal/mole
 Xe     3.8590304998    -1.2494961455    -7.0406009266
 Xe     1.0869733323    -3.5943570431    -4.6788573380
 Xe     5.4439712327    -1.7531764279    -2.8911345054
 Xe     5.0898472958    -5.2760780152    -5.6739106783
          4
Energy: -2.556370419162038 Kcal/mole
 Xe     7.5897019435    -0.9504979937    -4.3516316482
 Xe     5.6753920339     1.8851722462    -1.5231803440
 Xe     6.8429934802    -2.0644634171    -0.0509426010
 Xe     3.3744054417    -1.8233284943    -2.6714250121
          4
Energy: -2.5972997470496777 Kcal/mole
 Xe     7.3582717148    -1.1745714336    -4.2745450392
 Xe     5.7042512475     1.9452419339    -1.6196541199
 Xe     6.8660822553    -1.9973716423     0.0196837928
 Xe     3.3161108392    -1.6224376111    -2.5916197955
