          4
Energy: -0.19910990779467105 Kcal/mole
 Ar     1.1011097472     6.5302611468     6.0870178091
 Ar     3.4091677442    -0.8609268075    -7.3357548790
 Ar    -1.3538632963     1.7209159576    -6.5275108328
 Ar    -1.5359965808     3.9498977104     3.5691202471
          4
Energy: -0.2570455825130121 Kcal/mole
 Ar     6.3526508496     1.9907121261     5.8120676158
 Ar    -0.0873242760     7.3102166047     2.8846515472
 Ar     0.0485687589    -5.4021270645     1.3846888812
 Ar     2.8671072219     5.5117015675     3.8839371892
          4
Energy: -0.2514404048997509 Kcal/mole
 Ar     5.2128505670     3.5074949689     7.2718328734
 Ar     5.0588265174     7.3625473876     6.3969408911
 Ar     4.1867725639     4.3364865575    -7.3495631102
 Ar     5.6990978128    -2.2876318855     5.0294051108
          4
Energy: -0.16650184790700645 Kcal/mole
 Ar     1.0297773696    -4.3371205155    -2.7538906087
 Ar    -1.4695838921    -1.8788104491     0.9160417408
 Ar     7.4262206098     1.0426650293    -0.8319351314
 Ar     4.4737936749     2.0623576209    -4.8820308477
          4
Energy: -0.14008974330130963 Kcal/mole
 Ar     2.3761463869    -1.2884811597    -4.5761919763
 Ar    -7.1208360308    -2.4231850249    -1.6865347094
 Ar    -3.1593142057    -0.2407109531    -5.9431699646
 Ar     6.8428669413    -2.4283975257    -2.4346566485
          4
Energy: -1.185327019604973 Kcal/mole
 Ar    -4.5764250746     1.4060471490    -0.1203103269
 Ar    -4.0818886891    -2.0574750173    -1.7282874141
 Ar    -0.2401573356    -0.1630659439    -1.6553848324
 Ar    -3.2064898300     1.0020189301    -3.5849833127
          4
Energy: -1.0640994628816975 Kcal/mole
 Ar    -3.6427578659    -0.8604392328    -0.4905615480
 Ar    -7.3597388653    -0.1065340067    -2.3386535577
 Ar    -6.7859393953    -3.1861081271     0.2954951988
 Ar    -3.9832366486    -2.5859912038    -3.6362866990
          4
Energy: -1.180992212043525 Kcal/mole
 Ar    -2.9361661991    -0.7157262517    -5.8821356717
 Ar    -1.0994837958    -3.3306342073    -3.4867480250
 Ar    -0.5751528222     0.7621736099    -3.1263710244
 Ar    -4.3574390512    -2.1070914027    -2.5257871871
          4
Energy: -1.3821295445237651 Kcal/mole
 Ar    -2.1512691548    -0.6123867031    -7.1986069484
 Ar    -5.1923517740     1.6662534341    -7.0208512131
 Ar    -3.7058351895     0.3726230810    -3.8080809552
 Ar    -1.7896024986     3.1078622846    -5.7819962882
          4
Energy: -1.4032278934071702 Kcal/mole
 Ar    -2.0611050968    -0.3958330401    -7.2888660248
 Ar    -5.2053427262     1.7171001193    -6.7312111043
 Ar    -3.3283340676     0.2609800293    -3.7462955477
 Ar    -1.7896024986     3.1078622846    -5.7819962882
