          4
Energy: -0.6140202051955277 Kcal/mole
 Ar     5.2682633041    -5.8717993777    -0.7853033480
 Ar     0.5533451016    -6.7114881620    -1.5042149877
 Ar    -1.4011303567    -4.2813968695    -3.4147463301
 Ar     4.7433434736    -7.3045424319    -4.5399478842
          4
Energy: -0.1819642367024289 Kcal/mole
 Ar    -3.8770686266    -2.2385367695     2.3409832845
 Ar     4.4345529673    -2.8820378486     2.6414058873
 Ar    -1.5265554133     0.9658522790     5.0455394745
 Ar    -7.0419856967     1.1234472963     6.4197823677
          4
Energy: -0.7233660899487426 Kcal/mole
 Ar     3.3136658299    -4.4473696327     0.9493490885
 Ar    -1.1938491841    -2.9688238904     1.4865018810
 Ar     2.3007763630     0.3497739147     5.4615871077
 Ar     1.2658650408    -4.0169766440     4.3319193292
          4
Energy: -0.4279033736993326 Kcal/mole
 Ar    -6.4735656184     7.2192053930     3.6439791848
 Ar     1.9307127199    -2.0938499100    -3.4591775296
 Ar     2.2875361996    -5.7601520399    -4.3445942301
 Ar    -6.4544935101     3.3095104149     5.1010031990
          4
Energy: -0.20270429045312935 Kcal/mole
 Ar    -0.1433463296     2.9180698131    -4.5123289187
 Ar     5.1921592799    -3.5920567615    -4.9812338004
 Ar     2.1448892650     4.2243055256    -6.9589997938
 Ar     5.4979210821     0.8053870200     3.0531601095
          4
Energy: -0.19125878172472824 Kcal/mole
 Ar     7.1129448264     5.9929401733    -2.4364311454
 Ar    -6.4188767669     3.0486950964    -4.2965820999
 Ar    -2.9703965376     4.8476225358    -5.8866548638
 Ar    -0.7558753762     1.6372145078     6.6174869468
          4
Energy: -0.6081791935584245 Kcal/mole
 Ar    -4.1617395225    -1.3141051626    -5.1667759093
 Ar    -6.5338372176     4.5871400104    -4.5076478392
 Ar    -4.3638315065     2.0807635955    -6.5183936201
 Ar    -0.4323157050    -3.9253473050    -5.7118459435
          4
Energy: -1.1925545048581205 Kcal/mole
 Ar     4.2742759001    -2.8519830721     2.9270844407
 Ar     0.5509713375    -2.6685717525     2.8240926825
 Ar     4.6662055695    -0.2114519588     0.0088840531
 Ar     2.5990596720    -3.4224747963    -0.4770581922
          4
Energy: -1.2975311666756404 Kcal/mole
 Ar     0.9619967574     0.3196461610    -1.1628526960
 Ar     4.3895071643     0.6836659691    -3.6757767034
 Ar     4.6842187511    -0.0274744969     0.0370986565
 Ar     3.2078162444    -2.6659357274    -1.9395606952
          4
Energy: -1.4032816436734044 Kcal/mole
 Ar     1.0223807330     0.3413436126    -1.1146716426
 Ar     4.0223525555     0.7742135238    -3.4388377209
 Ar     4.5598664348     0.0439251571     0.2770424096
 Ar     3.1716904958    -2.6659154383    -2.0336377386
