          4
Energy: -0.026678932678648622 Kcal/mole
 Ar     2.0260509635     0.5981796653    -2.1852500211
 Ar    -4.9206559336     2.7048524608    -3.8279173542
 Ar    -6.0986123786    -3.7764847943    -5.9001750872
 Ar     2.9374554844    -0.8354189411     6.3911025293
          4
Energy: -0.11797879412625718 Kcal/mole
 Ar     3.7615479468    -3.1086176257    -3.6371735082
 Ar     0.4177895569     4.3730719012     3.7410092772
 Ar     0.2379705100    -6.2232875869    -4.2420422352
 Ar     5.8411012390    -2.9499482230     4.6872466725
          4
Energy: -0.22977856676746516 Kcal/mole
 Ar    -2.9648888404    -3.6953750969    -5.0489823265
 Ar     1.1404990174    -0.3753880894    -0.5610083768
 Ar    -1.2511029847     2.6802195279     1.2291325314
 Ar    -5.4612987132     3.3235492262     5.2386342708
          4
Energy: -0.2650789278930555 Kcal/mole
 Ar    -0.4030953612    -3.0803778049     3.2758261033
 Ar     3.8595641453    -0.8166842611     3.6277884540
 Ar     6.2857040109    -1.2660220103    -0.0397572594
 Ar     4.9772994270    -6.5324140406    -6.5103289275
          4
Energy: -0.17145320434587388 Kcal/mole
 Ar    -1.9343279569     5.2410581285    -1.7620672849
 Ar    -5.5969809513    -1.3339646094     0.9881064951
 Ar    -2.1872086823     5.3165492157     2.6367027714
 Ar     3.9310726491    -2.5248495215     4.9998689452
          4
Energy: -0.01439829182148173 Kcal/mole
 Ar     5.6287822771     4.3561347491     4.1330795798
 Ar    -3.5682256094    -0.6347223701    -1.1185982778
 Ar    -4.2914388819     4.6900143095     4.9861361939
 Ar     3.9321854998    -3.7861685375     1.6034324116
          4
Energy: -0.270457925351344 Kcal/mole
 Ar    -5.4809590555     0.3544401500     3.0803165450
 Ar    -0.3950166732     3.8916120562     0.6753102064
 Ar     2.3972202940     2.2585640469     2.4835263293
 Ar     4.2764592651     1.7284961610    -4.2163884801
          4
Energy: -1.0011103246874073 Kcal/mole
 Ar    -5.6271515584    -1.4797173935    -4.6129718351
 Ar    -2.6948845943     0.9413625476    -2.5850613977
 Ar    -1.9910030890    -1.0324063751    -6.1053079708
 Ar    -6.4053047825     2.0856155142    -4.9695634439
          4
Energy: -1.1980936920629497 Kcal/mole
 Ar    -6.4532120811     2.8297997827    -4.7827147405
 Ar    -6.0825268675     6.6018860759    -6.4066071138
 Ar    -3.3007830208     5.1642019314    -3.9854134548
 Ar    -6.2803027078     6.5743328350    -2.7138470627
          4
Energy: -1.4030409063142208 Kcal/mole
 Ar    -6.2190739718     2.8364289780    -4.7215106120
 Ar    -5.9365287753     6.3580132377    -6.1578345260
 Ar    -3.1202613428     4.9708896791    -3.9940686972
 Ar    -6.4779591226     5.8660988355    -2.4273572667
