          4
Energy: -1.4030409063142208 Kcal/mole
 Ar    -6.2190739718     2.8364289780    -4.7215106120
 Ar    -5.9365287753     6.3580132377    -6.1578345260
 Ar    -3.1202613428     4.9708896791    -3.9940686972
 Ar    -6.4779591226     5.8660988355    -2.4273572667
