          4
Energy: -1.4032278934071702 Kcal/mole
 Ar    -2.0611050968    -0.3958330401    -7.2888660248
 Ar    -5.2053427262     1.7171001193    -6.7312111043
 Ar    -3.3283340676     0.2609800293    -3.7462955477
 Ar    -1.7896024986     3.1078622846    -5.7819962882
