          4
Energy: -0.02787431906873481 Kcal/mole
 Ar    -0.7514341273     2.8102713388     4.5585626536
 Ar    -2.3407188184    -4.1508865200    -3.3185042085
 Ar     4.1915914712    -2.4378888848     0.5839669450
 Ar    -2.5747442166     3.1002621826    -3.5656135852
