          4
Energy: -1.4032816436734044 Kcal/mole
 Ar     1.0223807330     0.3413436126    -1.1146716426
 Ar     4.0223525555     0.7742135238    -3.4388377209
 Ar     4.5598664348     0.0439251571     0.2770424096
 Ar     3.1716904958    -2.6659154383    -2.0336377386
