          4
Energy: -1.403215488458471 Kcal/mole
 Ar    -0.1640089562    -0.1629840466    -2.7162070451
 Ar    -3.0631972929     1.9828627949    -4.0105862384
 Ar     0.3154711898     3.5869715556    -3.2699302085
 Ar    -1.8799785709     2.3539326547    -0.4008075940
