          4
Energy: -1.403222300634482 Kcal/mole
 Ar     2.4625858322     6.2840538411    -2.4016094996
 Ar     4.3232172896     3.3447191266    -0.8331159017
 Ar     1.1174255999     2.7468818580    -2.8206061435
 Ar     0.9674656362     4.4577511199     0.5849583992
