          4
Energy: -0.025100756844582253 Kcal/mole
 Ar     3.5109583766    -4.5099028688    -2.6506532406
 Ar     0.9843581236     3.0034659535    -3.9995681397
 Ar     4.4349036390    -2.7599247545     4.3734102490
 Ar    -3.8332879380    -2.1925818174     1.3792254708
