          4
Energy: -1.4033161807038204 Kcal/mole
 Ar     5.6105151871    -4.6332326992     3.3373992161
 Ar     4.3553761922    -1.0259904511     3.4114779253
 Ar     4.7324541781    -2.9745413388     6.6681116516
 Ar     1.9708744802    -3.9079310386     4.1984721753
