          4
Energy: -1.4032419158118272 Kcal/mole
 Ar     4.3879986197    -3.2896717556    -0.1429967098
 Ar     2.2478190470    -2.1379691146    -3.0896286719
 Ar     6.0269202449    -1.5480821565    -3.1032567620
 Ar     4.6396258541    -5.0836883777    -3.4940320603
