          4
Energy: -1.4032821212701392 Kcal/mole
 Ar    -3.5837141619    -0.6847593663     0.9355084500
 Ar    -3.6400409051     0.0521746670     4.6872638709
 Ar    -4.0126018819    -3.5304705983     3.4314592742
 Ar    -0.6466120878    -1.7545393253     3.1326354514
