          4
Energy: -0.33561063392992596 Kcal/mole
 Ar    -3.0645524152     5.5650639459    -5.2574403171
 Ar     4.4709292596     7.4635290308     1.3678924481
 Ar     2.9000859665     3.4758102282     0.8214937473
 Ar    -5.6563474027     7.3649248138    -2.2099732301
          4
Energy: -0.7537517881046982 Kcal/mole
 Ar     0.7076978443    -1.3300898318     2.9196464976
 Ar    -0.4328848190     2.1049249313     2.8413795224
 Ar     0.3407118107    -2.1225207454    -2.3541225690
 Ar    -1.7499937053     1.1318144932    -0.8905762422
          4
Energy: -0.2532826579980071 Kcal/mole
 Ar    -4.4349613989    -4.5646387261     1.7284356191
 Ar     2.4280702413    -4.1145342903     4.4135363873
 Ar    -1.2802174685    -3.5113282649     6.8187807947
 Ar    -6.9802927141    -4.9896244796    -2.7812817930
          4
Energy: -0.6375745294204282 Kcal/mole
 Ar    -1.8669794293     1.1296218769    -0.9863785673
 Ar     0.5153703945    -1.1292304266     0.8027319466
 Ar     0.9299144302     0.2390645620    -3.1142780915
 Ar     4.8430089768    -7.4082860813    -0.2615827031
          4
Energy: -0.6782587736622481 Kcal/mole
 Ar    -1.0478705854     6.9945356496    -4.7181875303
 Ar     1.2010263548     3.4692273084    -5.2778046966
 Ar     2.4269953509     6.9332094447    -6.0758168182
 Ar    -5.7369561497     2.6389197807    -6.2710637481
          4
Energy: -1.2147479818639924 Kcal/mole
 Ar     0.0180597842    -1.9928691252    -6.9156864013
 Ar     0.7591238554    -2.7140364387    -2.5269723464
 Ar    -3.0050430010    -3.1089333065    -4.5165133894
 Ar    -1.3014548028     0.3476931496    -4.1923703161
          4
Energy: -1.0839260979730376 Kcal/mole
 Ar     3.1725302757    -3.9772554054    -1.7824564924
 Ar     0.2976611280    -1.8221015223    -1.4093742707
 Ar    -1.6932414939    -3.6243429557    -4.2670639146
 Ar     0.0891040888    -6.2622764220    -1.9739119409
          4
Energy: -1.3823994963024457 Kcal/mole
 Ar     5.6452738490    -4.1778715107    -5.0448371913
 Ar     3.4669260737    -2.9127258673    -2.0489393769
 Ar     6.3685894196    -5.4986754752    -1.4775263824
 Ar     7.0042041377    -1.7756378293    -2.3231775491
          4
Energy: -1.3253377834239923 Kcal/mole
 Ar     4.3285250564    -3.2261076115     0.1498360228
 Ar     2.4048070621    -2.1424591098    -3.1214386744
 Ar     6.1645938476    -1.3645389884    -2.8907719971
 Ar     4.6001888764    -5.1445785998    -3.3806226310
          4
Energy: -1.4032419158118272 Kcal/mole
 Ar     4.3879986197    -3.2896717556    -0.1429967098
 Ar     2.2478190470    -2.1379691146    -3.0896286719
 Ar     6.0269202449    -1.5480821565    -3.1032567620
 Ar     4.6396258541    -5.0836883777    -3.4940320603
