          18
Energy: -70.60854108520434 Kcal/mole
 H      1.8628863997    -1.0539201983    -2.5963207038
 F      1.5950049199    -0.9214755279    -3.4632618334
 H      4.0791062065    -3.4812345920    -3.7194174558
 F      3.7470794184    -3.6739454172    -2.8866451281
 H      2.4166127409    -2.1833858877    -0.7425430324
 F      2.4104208995    -1.3245680887    -1.0639192126
 H      4.0786382161    -5.1662324206    -2.2265784826
 F      4.3318041439    -5.9736210867    -1.8731388768
 H      4.2969729760    -5.1046752430     1.5561862666
 F      3.7606985085    -4.4560149051     1.9202445882
 H      2.8360954175    -3.9305276761     0.6785236408
 F      2.4272879235    -3.7264338465    -0.1165305345
 H      2.6974464947    -0.7115032149    -4.6802493359
 F      3.3709233960    -0.7181189155    -5.3025628388
 H      4.8678213537    -6.1661207076    -0.3116372346
 F      5.1096404115    -6.1654143220     0.5729033491
 H      4.2003838304    -2.1454260677    -5.3362854069
 F      4.5734043290    -2.9695917461    -5.1862999336
