          18
Energy: -70.59107251095173 Kcal/mole
 H      1.8290155792    -1.1009943555    -2.5076177218
 F      1.5253680514    -0.9837425553    -3.3649036684
 H      3.9130504247    -3.6792759578    -3.7624892094
 F      3.7040763634    -3.8178427414    -2.8804358731
 H      2.4537531268    -2.2150971793    -0.6719857833
 F      2.4333937851    -1.3575857774    -0.9962521750
 H      4.1625551638    -5.2537556758    -2.1708998337
 F      4.4811539392    -6.0252822765    -1.7912545720
 H      4.5324506593    -4.9916576709     1.5882866789
 F      3.9590688987    -4.3736124306     1.9490392777
 H      2.9580949650    -3.9297224987     0.7347194078
 F      2.5054600650    -3.7562046979    -0.0436778045
 H      2.5707391678    -0.8530465973    -4.6412158457
 F      3.2042046207    -0.9051330735    -5.3021980837
 H      5.1163420872    -6.0935677435    -0.2515855315
 F      5.3997682427    -6.0244007187     0.6177674101
 H      3.8919808695    -2.4005596989    -5.4198588990
 F      4.2067117881    -3.2543462405    -5.3063600432
