          5
Energy: -0.18203529114605185 Kcal/mole
 He     2.1814602315     4.2850847840     2.4477203830
 He     3.6358790446     6.1590675667     0.8382822743
 He     0.8708378589     5.6339130542     0.2810722657
 He     0.3069213486     2.8770666201     0.8044328139
 He     2.8631231509     3.6297557108    -0.2776794148
