          5
Energy: -0.001991944066223949 Kcal/mole
 He    -1.6056379882    -4.1835069378     1.5423098963
 He     0.4459020906     2.0872874211     4.1760098026
 He    -4.3093117321     2.5189741025    -2.0229680482
 He     4.9564213295    -3.7705677923    -2.1908020720
 He     3.8969550134    -4.3268621575     3.2600683387
