          5
Energy: -0.18197007524937675 Kcal/mole
 He    -4.9741723192    -1.3078644924    -2.6504470168
 He    -3.3338875210    -1.3210367369    -5.0187230460
 He    -4.1317071648     1.1517367263    -3.8307454294
 He    -2.2474488162    -0.5154770448    -2.4797896426
 He    -2.8945867425    -3.2604935386    -2.9450181671
