          5
Energy: -0.1820270775673109 Kcal/mole
 He     1.6818060392     4.9484077474    -0.2819828161
 He     3.4711423557     2.7442292547     0.0662948370
 He     2.0614407521     3.0572833598    -2.4114219683
 He     4.1581264620     4.8923075408    -1.7217697976
 He     4.1560594349     5.3186640311     1.1200673368
