          5
Energy: -0.001053541064740759 Kcal/mole
 He     1.5753396741    -2.1437205992    -3.1675904155
 He    -7.4891533764     2.8547467837    -1.1362769746
 He    -1.7409102715     5.7706603314     2.5271946301
 He     3.7873129306    -4.5610208705     4.5448285377
 He    -6.0841025802     6.3238295170     6.0027871529
          5
Energy: -0.0018544348088940232 Kcal/mole
 He     2.6236158713    -5.7473264068     5.7863681059
 He    -1.6882875179     6.2166984991    -5.2347550938
 He     1.9263429489     2.0858684693    -4.7148479332
 He     0.8707441097     2.9653243222     2.9711848404
 He     6.2099246108    -0.7170732839    -6.5130949578
          5
Energy: -1.7495453399039412E-4 Kcal/mole
 He    -3.0253009281    -5.6940039945    -5.9910014973
 He    -3.5249719568     3.3653135946     4.2827003094
 He    -0.0645144173     3.4184068212    -5.8059868542
 He     4.1401565457     0.1444093669     6.0258739992
 He     6.4830741739    -5.8418126919    -0.2833188203
          5
Energy: -0.0154014776749497 Kcal/mole
 He    -0.1848956948    -3.3484625715     1.5288763009
 He    -6.5402835626     5.0665329381    -1.3059293515
 He     0.8290839665    -1.1384055318     2.6274622698
 He    -6.0298759243     5.8988586265     4.0829244490
 He     3.0817914282     3.5640395001     5.9971009537
          5
Energy: -0.003468501419109866 Kcal/mole
 He    -1.5262900472     4.3360909929    -5.3482307242
 He    -5.6402300652     6.8337274368    -5.8106990188
 He     3.4920266672    -2.3909919583     3.4580108977
 He     1.7010086326    -1.2985053568    -2.4488120091
 He     2.8110594576     2.7003961095     4.3360232766
          5
Energy: -0.009924335653262338 Kcal/mole
 He     3.3418471726     7.4558595782     0.5128230438
 He     3.5187542757    -0.2596903196    -0.9150062322
 He     5.3200031427    -4.5285339941     4.0001061931
 He    -5.4150052205    -7.0911014998     1.8658394403
 He    -0.0469111264     7.4004657303    -0.5655919165
          5
Energy: -0.026842691507833607 Kcal/mole
 He    -0.6442569936    -0.3116479831     1.5114976740
 He    -0.2090329103     0.5221930249     4.3592598073
 He     2.4633789496     4.7396086769     1.6178161888
 He    -4.9351676020    -4.9576964723     0.4859674160
 He    -1.4456062566     3.9381527859     5.9175824604
          5
Energy: -0.009093121332660029 Kcal/mole
 He     3.1982326911     3.8170640042    -5.8456552982
 He    -4.3399715850    -0.7487923060     3.4082677308
 He     6.9142925850     6.7787531784    -5.5824265336
 He     5.2130885702     4.3610410770     0.8053521488
 He    -0.4719967213     4.8276453435    -5.7716897076
          5
Energy: -5.171665395993245E-4 Kcal/mole
 He     4.4068676130     6.3728175470    -5.7238773086
 He    -4.4736634306    -2.0212126806    -7.2015024834
 He    -5.4413575044     3.8212355339    -4.8601311691
 He     1.9323928530     1.0015358451     0.8120668220
 He     4.8155937344     7.3986576317     5.7025413590
          5
Energy: -0.1820270775673109 Kcal/mole
 He     1.6818060392     4.9484077474    -0.2819828161
 He     3.4711423557     2.7442292547     0.0662948370
 He     2.0614407521     3.0572833598    -2.4114219683
 He     4.1581264620     4.8923075408    -1.7217697976
 He     4.1560594349     5.3186640311     1.1200673368
