          2
Energy: -0.0022336520914301755 Kcal/mole
 Ne     1.1513074461    -2.2771309110     0.3006946043
 Ne    -2.6904001146    -3.5088373514    -4.4017200672
