          2
Energy: -0.06899999995812839 Kcal/mole
 Ne     1.0666574163     3.7265079946    -0.0012483066
 Ne     2.5469562631     1.5928875323     1.7289509067
