          2
Energy: -4.472568903078984E-5 Kcal/mole
 Ne     2.8471338944    -1.1813003495    -1.8684231087
 Ne    -7.2864632753    -6.3622475945     1.6267093501
          2
Energy: -4.040458458588429E-5 Kcal/mole
 Ne    -6.6543652631     7.3404630849    -0.0657641602
 Ne    -0.1770975527    -0.4353795181    -6.7150480329
          2
Energy: -6.748419624315503E-4 Kcal/mole
 Ne    -6.9374926791     3.9940912924     4.1993543604
 Ne    -1.5430820671    -0.2979386672     1.0691089968
          2
Energy: -1.564144260656622E-4 Kcal/mole
 Ne     5.0273266483    -0.9164100320    -3.0280975901
 Ne    -1.0178327824    -7.1400285875    -7.2819145712
          2
Energy: -2.600938148752613E-5 Kcal/mole
 Ne     3.5981138258     1.8174929223     5.1311661759
 Ne    -5.8090181153    -5.2334270121    -0.4916144008
          2
Energy: -7.962037247717351E-5 Kcal/mole
 Ne     1.5769942488     5.5134557500    -7.1254941118
 Ne    -5.7546789392    -2.3636217101    -6.0527874711
          2
Energy: -1.5336220942240765E-4 Kcal/mole
 Ne    -3.0452021595    -1.4569283619    -1.5043498602
 Ne     1.7369008168    -7.0565924311     4.8014655412
          2
Energy: -0.00253156046607644 Kcal/mole
 Ne    -3.9003942735     1.0147266487     2.6681153332
 Ne    -4.9908862024    -4.3977528817     5.1824204420
          2
Energy: -1.9475370190622917E-4 Kcal/mole
 Ne    -1.6264228353    -7.2834962174     5.3442500946
 Ne    -4.8780831925    -1.9675694670    -1.5807804930
          2
Energy: -0.06899999995587908 Kcal/mole
 Ne    -3.1723340545    -6.2398677437     3.2159466489
 Ne    -4.1646214347    -5.0120239659     0.5242965740
