          2
Energy: -0.06899999996317556 Kcal/mole
 Ne    -0.2972159089     5.4074702919    -1.4048978908
 Ne    -2.0812816909     4.5204358550     0.9966494122
