          2
Energy: -0.06899999994932228 Kcal/mole
 Ne     3.8807220995     4.0002224981    -3.8044895638
 Ne     4.9592669043     3.7197109112    -6.7191381723
