          2
Energy: -0.06899999995587908 Kcal/mole
 Ne    -3.1723340545    -6.2398677437     3.2159466489
 Ne    -4.1646214347    -5.0120239659     0.5242965740
