          6
Energy: -0.9757175604646535 Kcal/mole
 Ar    -5.2589103285    -5.5022183943     3.7034187251
 Ar     6.2905692086    -1.0263186768     2.6208729951
 Ar    -2.6902148570    -1.5355826009     6.5995636984
 Ar     0.7272748907    -2.3687422479     4.7401912249
 Ar    -0.6624482383    -6.2285235769     4.3932339196
 Ar    -6.3492897785    -2.1775901526     4.0068331616
          6
Energy: -1.0689667495455668 Kcal/mole
 Ar    -0.8643475239     6.9399414406     0.1447557740
 Ar    -1.3777679225     4.1891938701    -2.4580638711
 Ar     1.5858489063     6.1878290162     4.4886030325
 Ar    -4.0122364378     3.2429576051     1.4346578470
 Ar    -1.0327711483     0.3712315702     1.0543510442
 Ar    -3.7729389856     3.4595655793     4.9766740746
          6
Energy: -0.3647514215798408 Kcal/mole
 Ar     2.5099474940    -4.7204447734    -4.1432170834
 Ar     3.7235301723    -1.4653894188     5.8045680944
 Ar     2.5715525179    -6.9170031838     4.3101123045
 Ar     0.3576116396     1.9309371046     3.0389830284
 Ar     4.0181112936    -0.9456057334    -7.1887560053
 Ar     3.9842063977    -3.0482212578     0.7823082488
          6
Energy: -0.39995891836531355 Kcal/mole
 Ar    -1.9662680856     5.7006070673    -2.6384998677
 Ar    -1.7336246354    -2.0679942771     5.6173858975
 Ar    -3.2752042978    -0.3706993641     3.2055072363
 Ar    -6.3678240440    -2.4316499393     5.8428841895
 Ar     1.5579403862     4.3502573316    -1.8512022665
 Ar    -7.0011591287     5.2788450851     0.2440374583
          6
Energy: -0.49318868888682404 Kcal/mole
 Ar     2.0218052441    -7.2287742253    -2.1695377996
 Ar     2.8731045398     4.8260093094     4.8921830673
 Ar     0.6588922899    -3.4724772974    -5.9676564314
 Ar     1.8545594293     0.4427169577    -2.6821550964
 Ar     2.2816474705     2.1943193605     1.6683623937
 Ar     7.1165787147     5.0900024852     0.1231586498
          6
Energy: -0.5613705962667684 Kcal/mole
 Ar     3.7444609726     4.8303321816     5.6756931729
 Ar    -0.9243752861    -2.0543424345    -0.3809704219
 Ar     3.5115321739    -3.9089621730     1.6420749919
 Ar    -0.5984581920     4.5417481931    -3.8796547827
 Ar     0.6654562812     0.5648486960    -4.7251530394
 Ar     0.7954001929     6.5216191420    -0.6282951864
          6
Energy: -0.8573782415817729 Kcal/mole
 Ar     0.6129465066    -3.0206162758     3.0116999278
 Ar    -4.7736508131     0.6254772611     0.1437826355
 Ar     0.2844114496     0.2695786024    -0.6925531441
 Ar    -2.3507092170     4.4372451286    -6.4832152512
 Ar    -3.3368566542    -3.4408829813     2.9810290064
 Ar    -4.7183036638     3.7196330271    -3.2539249635
          6
Energy: -2.0451681119583025 Kcal/mole
 Ar    -5.2378260565     1.9601283762     0.7285446620
 Ar     0.6784898716     3.4861860276     0.7024212537
 Ar    -5.5402030936     5.4018599613    -1.6420182444
 Ar    -2.9287730070     2.3658354306    -2.0874812846
 Ar    -1.2557010615    -0.7963219297     0.3432610733
 Ar    -2.7970184398     5.1055044672     0.5922727865
          6
Energy: -2.8480950487013166 Kcal/mole
 Ar    -5.9949929504     2.4883508420     3.5036833292
 Ar    -3.3089222812     6.9848960554     2.5767069776
 Ar    -7.0418386061     6.1616510988     2.9990612854
 Ar    -5.0164747484     4.3926010306     0.0764096927
 Ar    -2.2908117172     3.4826979946     3.0681236731
 Ar    -4.5494174481     5.1261476951     5.6148585940
          6
Energy: -2.972870764753455 Kcal/mole
 Ar    -5.9278168902     2.3378820141     3.1924176486
 Ar    -3.4687644194     7.0655869559     2.5857492461
 Ar    -7.0933123920     5.9305540076     2.7704983525
 Ar    -4.7199840899     4.3855433786     0.2215481244
 Ar    -2.3138901828     3.4668829792     3.0059536622
 Ar    -4.6542754918     5.0364253945     5.5527548580
