          6
Energy: -0.7069489829372805 Kcal/mole
 Ar     4.5434554253     3.8115949665    -2.4233794942
 Ar     2.8181148642    -3.5823456036    -1.2347143131
 Ar    -1.7072368199     3.9363799261    -3.6613376863
 Ar    -3.0981268860     1.5589790232    -6.3060164755
 Ar     7.4213750521     2.8170125675    -0.0784986234
 Ar     0.6710978207     6.0155425327    -6.9055911326
          6
Energy: -0.3397242310765329 Kcal/mole
 Ar     5.4596982130     7.4101483003     2.3660576106
 Ar     5.0747556995     5.8391669012     6.2722570054
 Ar    -5.1284370269     2.7597698711     6.5972093443
 Ar    -6.9687248991     5.7851628832    -3.6623356542
 Ar    -7.4200194238    -0.7263047408     5.0448949270
 Ar     0.6945914086    -6.3734193451     1.5402247871
          6
Energy: -0.7427781035956191 Kcal/mole
 Ar    -0.8888908629    -6.9144469573     1.9049834803
 Ar    -3.4089077271     1.0819514613    -0.1830946843
 Ar    -6.4825532156    -3.6663487207    -1.8348437277
 Ar    -6.4430382723     3.3400551754    -0.6876146544
 Ar     0.2708616822     2.4611513767     0.7924972520
 Ar    -0.8096824289     0.4841991525    -3.8937413362
          6
Energy: 0.011023539831179256 Kcal/mole
 Ar     0.6656523830    -1.6991925336     6.0157037456
 Ar     7.2191642054     5.9836186787     0.3248336833
 Ar    -5.4382600158     5.7781689023    -1.6556377320
 Ar    -4.2862995963     4.1094985265     7.0993262600
 Ar    -3.9891379800    -0.9061981630    -4.9189588495
 Ar    -2.6208128204    -2.3204353344     5.5669963372
          6
Energy: -0.9402700285127056 Kcal/mole
 Ar    -1.0762716030     4.9217055519     3.1236442228
 Ar     3.3080650553     5.1399960348     3.0696757032
 Ar     0.8585156060     4.2717003095     0.1685067391
 Ar     1.0084832425    -5.1538037987     2.1401177451
 Ar    -2.8054235724    -2.7271098544    -1.7125995588
 Ar    -3.0467751813     4.8477155107    -1.1903495388
          6
Energy: -0.8237131057542844 Kcal/mole
 Ar     6.5947464827     1.2891402906     1.1950394809
 Ar     0.9983777745     2.4525338724    -5.2261015904
 Ar    -0.5967773971     1.0688269709    -1.5569886558
 Ar     4.1640424873    -6.8558927576    -0.6207120216
 Ar    -1.8386301274     4.6369486539    -1.1478735422
 Ar     3.8061301825    -1.3481497800    -0.4463915543
          6
Energy: -1.1617079466413176 Kcal/mole
 Ar     5.6109661774     3.5157684818    -1.5601037815
 Ar     4.0293381157    -6.9687939760     0.5176092998
 Ar     7.0236652052    -7.0151842616    -4.1137858879
 Ar     5.8176819854    -3.3104648336     0.9310592429
 Ar     1.2229991184    -6.7855464326     3.1692762697
 Ar     2.4149721171    -3.4300116081     2.3674115462
          6
Energy: -2.2717808018874286 Kcal/mole
 Ar     6.2842811036     0.3223043589    -1.5158777730
 Ar     2.2226056143     0.8447899853    -1.8454557542
 Ar     2.4714193848    -4.8389867644    -0.4678877683
 Ar     5.6426695372    -3.8143830050    -2.4374284679
 Ar     4.2603876721    -1.6075862408     0.5094612464
 Ar     2.6482287613    -2.4160779309    -3.6429369363
          6
Energy: -2.5386040965782235 Kcal/mole
 Ar     4.1993791672    -0.9022945751    -3.9993097195
 Ar     3.4842115935     0.1491159444    -0.4237932288
 Ar     3.1639021400    -1.9254577309     2.6389488570
 Ar     1.0897166547    -2.8631040343    -0.3717280598
 Ar     5.0577733939    -3.2652490379    -0.9655141675
 Ar    -0.1279233323     0.1808604064     1.4755492074
          6
Energy: -2.8765008285655544 Kcal/mole
 Ar     3.0631423792    -1.3992668614    -3.7004415325
 Ar     3.5226593868     0.3053324556    -0.3520237468
 Ar     3.1294555921    -2.2262437901     2.4640800743
 Ar     1.0081973430    -2.5823417951    -0.7089746777
 Ar     4.7330778905    -3.2741659674    -0.8144113272
 Ar     0.3272369163     0.2581454057     1.7249665599
