          6
Energy: -2.972870764753455 Kcal/mole
 Ar    -5.9278168902     2.3378820141     3.1924176486
 Ar    -3.4687644194     7.0655869559     2.5857492461
 Ar    -7.0933123920     5.9305540076     2.7704983525
 Ar    -4.7199840899     4.3855433786     0.2215481244
 Ar    -2.3138901828     3.4668829792     3.0059536622
 Ar    -4.6542754918     5.0364253945     5.5527548580
