          2
Energy: -0.3169999999435124 Kcal/mole
 Kr    -1.2682585078    -7.0245314909    -4.7217369998
 Kr     1.9144774507    -5.7129100575    -6.8889551160
