          2
Energy: -0.0016889107354153838 Kcal/mole
 Kr    -6.9808377501    -5.4021266925     3.8760484392
 Kr    -1.5448169946     0.5032382380    -3.5326782659
          2
Energy: -0.13803373275064024 Kcal/mole
 Kr    -5.6445938256    -0.3376859153     0.2783631901
 Kr    -1.3315801136     2.4054818201     0.7119307138
          2
Energy: -0.0025769394901349013 Kcal/mole
 Kr    -0.3443714087    -2.8498066804    -3.7665783605
 Kr    -0.8687634551     7.2786897902    -2.8989072133
          2
Energy: -0.1552386673673874 Kcal/mole
 Kr     2.5157718923     2.0186993420     5.8886552516
 Kr     3.2821468031     1.6147183399     0.9516077891
          2
Energy: -0.09372845868861407 Kcal/mole
 Kr    -6.1659582201     4.8833494210     0.4540830886
 Kr    -0.8481279477     3.4623341678     0.0890321400
          2
Energy: -0.01507165307912292 Kcal/mole
 Kr     4.6448945904    -1.0487563730    -6.1544577045
 Kr     6.5542870220    -7.3153618574    -2.3597220592
          2
Energy: -3.914915843493572E-4 Kcal/mole
 Kr     2.3071058548     6.0775686105     7.2110726754
 Kr     6.9140861278     0.0026278250    -4.4579830368
          2
Energy: -0.3047131237904118 Kcal/mole
 Kr     1.4800765958    -1.3943337992    -0.7930209844
 Kr    -2.1239116251     0.4689827192    -1.9509962944
          2
Energy: -0.2674737244784554 Kcal/mole
 Kr    -4.3950695503     1.7251028765     4.5700916455
 Kr    -3.3318390989     5.3231580538     2.2268336253
          2
Energy: -0.3169999998544273 Kcal/mole
 Kr    -3.9416255358     2.1334191580     4.9204270008
 Kr    -3.6383899747     5.3454010781     2.4428611318
