          2
Energy: -0.3169999993220261 Kcal/mole
 Kr     6.5163980675    -0.4917390274    -4.8776957682
 Kr     3.7367390163     2.2396756970    -3.7116594505
