          2
Energy: -0.0016862839885630775 Kcal/mole
 Kr    -2.5092208872    -3.0136736918     3.5635440082
 Kr    -3.2422246868     4.5436621999    -4.2929354853
