          2
Energy: -0.316999999832932 Kcal/mole
 Kr    -0.3920288086     5.8461299074    -4.5781864584
 Kr     3.5227606469     6.5164861828    -3.6995755155
