          2
Energy: -9.074375335450723E-4 Kcal/mole
 Kr    -4.5788473397    -4.8221375813     4.2155869959
 Kr    -4.0354465023     0.0219462771    -6.8764403817
          2
Energy: -0.22229854053111342 Kcal/mole
 Kr     6.6561448408     2.5227616910     4.8745650674
 Kr     5.7987923454    -1.1547456321     5.0969490107
          2
Energy: -0.0010082857203050528 Kcal/mole
 Kr    -0.1200196688    -6.6023771062    -4.5996067497
 Kr    -0.3185954483    -4.9011692130     7.1812778722
          2
Energy: -0.019894736207017174 Kcal/mole
 Kr     1.5485703893     0.9771337056    -2.8926242191
 Kr     5.9092660908     4.8333435662     1.3846050085
          2
Energy: -0.0030278686205940297 Kcal/mole
 Kr    -0.5295321364     4.2269479946     4.7875229103
 Kr    -3.4194374413     3.1829536985    -4.6325957348
          2
Energy: -2.1829850448093426E-4 Kcal/mole
 Kr     7.3421427350    -0.3188272241    -2.0385731232
 Kr    -6.5420845362     1.8311529707     4.1804218041
          2
Energy: -0.31618022579783384 Kcal/mole
 Kr    -7.3614638762     1.5344618143     1.9742791054
 Kr    -5.5753601353     3.5199827296    -1.1409974489
          2
Energy: -0.17778051134508116 Kcal/mole
 Kr    -5.4529179410     5.5806250240     5.4222717193
 Kr    -0.6282332061     4.9248098413     5.6741724447
          2
Energy: -0.3169345728515068 Kcal/mole
 Kr     6.3707569042    -0.6173721884    -4.9115885512
 Kr     4.3679129540     2.6559508139    -3.5915508668
          2
Energy: -0.3169999993220261 Kcal/mole
 Kr     6.5163980675    -0.4917390274    -4.8776957682
 Kr     3.7367390163     2.2396756970    -3.7116594505
