          2
Energy: -0.3169999998544273 Kcal/mole
 Kr    -3.9416255358     2.1334191580     4.9204270008
 Kr    -3.6383899747     5.3454010781     2.4428611318
