          2
Energy: -0.01999999999701942 Kcal/mole
 He    -7.1348219031     5.0084067711    -5.1666381053
 He    -4.6395239381     6.3576127972    -5.5960273042
