          2
Energy: -0.019999999987733517 Kcal/mole
 He     2.9056941765    -0.6265030022    -6.3987413561
 He     5.5274483883     0.4075961781    -5.8618804806
