          2
Energy: -0.0035943316041033508 Kcal/mole
 He     6.9079772424     6.8784821577    -0.9714619300
 He     6.4080138867     5.1091022332    -4.8059123378
          2
Energy: -1.8165653223730287E-6 Kcal/mole
 He    -7.1208272005    -5.7924831953    -1.7019772933
 He    -0.3660292236     7.0638709082    -6.1512433386
          2
Energy: -1.7720199526657812E-4 Kcal/mole
 He     4.2313241126    -5.2367090547     1.8987608167
 He     5.4394917589    -5.8848002533    -5.0439618272
          2
Energy: -1.1438693245206624E-4 Kcal/mole
 He    -1.2944956162     0.4704838468     2.6484897880
 He     2.7205260632    -5.3260769567    -0.2225122582
          2
Energy: -2.3568328515951442E-4 Kcal/mole
 He    -2.1900093548    -0.9070474787    -1.2731399779
 He     3.7882732992     1.1926347690    -3.5925496320
          2
Energy: -4.92408070812115E-4 Kcal/mole
 He    -7.3327341023     3.7715699808     3.1647304949
 He    -1.9158070786     2.7119042583     5.4250246137
          2
Energy: -0.004287280898825842 Kcal/mole
 He    -6.8116466427     3.9538688743    -1.7938882314
 He    -4.9488871201     7.4652729940    -0.7012208576
          2
Energy: -3.1483712438903677E-4 Kcal/mole
 He    -4.3806533319    -1.0676930727    -2.5830996806
 He    -1.6309950554    -5.4969022823     1.1781290245
          2
Energy: -0.010558460963470032 Kcal/mole
 He     3.4870075210    -1.8930935683    -6.6454932944
 He     5.6962358232     0.5015882548    -5.4170740101
          2
Energy: -0.019999999987733517 Kcal/mole
 He     2.9056941765    -0.6265030022    -6.3987413561
 He     5.5274483883     0.4075961781    -5.8618804806
