          2
Energy: -0.019999999996762538 Kcal/mole
 He     2.0876290870    -2.5419034279    -7.2556863219
 He    -0.2105616432    -0.8269594209    -7.1634416022
