          2
Energy: -0.019999999628589952 Kcal/mole
 He     6.0423749508     2.2210384205     0.1830130437
 He     5.2392637243     0.8987644821     2.5990981211
