          2
Energy: -1.4314334672783764E-4 Kcal/mole
 He    -2.2162461519     0.7517744167     2.6332220305
 He     2.8546234186     5.7630447621     4.3522913872
          2
Energy: -4.577978529629266E-5 Kcal/mole
 He     3.3683062367    -4.6683578870     2.8400304803
 He     6.9297174532     2.8601597420     5.8919350470
          2
Energy: -6.306093401028484E-6 Kcal/mole
 He    -6.6152952882     4.8084220610    -0.3499360475
 He     2.2953620101    -2.5510216665     3.9864605868
          2
Energy: -3.3515467009195916E-5 Kcal/mole
 He     1.9570670409     3.8136028737    -6.4042762517
 He    -0.6962012583    -5.1078270758    -7.2211306681
          2
Energy: -1.1275094656513712E-6 Kcal/mole
 He    -5.0586693334    -2.5696220944    -1.2564460716
 He     7.4713175868     6.0821124252    -7.4702205768
          2
Energy: -0.013658411530148625 Kcal/mole
 He    -5.9418228016    -2.6421708584    -0.0786056608
 He    -6.4943917891    -1.1623012304    -2.9686467928
          2
Energy: -3.544250311771963E-6 Kcal/mole
 He    -2.2547579741    -4.9926463452    -3.9765417654
 He    -3.7803984781     5.3469418708     4.7065449584
          2
Energy: -2.851720464715526E-7 Kcal/mole
 He    -5.3039121935     5.6565599001    -6.5718991568
 He     3.7459031132    -6.7833526095     7.2493185208
          2
Energy: -5.126013915988222E-6 Kcal/mole
 He     7.2098413689     6.0255768049    -4.4351735011
 He     3.7381604378    -3.1556272397     3.7449205285
          2
Energy: -0.019999999628589952 Kcal/mole
 He     6.0423749508     2.2210384205     0.1830130437
 He     5.2392637243     0.8987644821     2.5990981211
