          2
Energy: -9.390093378546213E-6 Kcal/mole
 He     1.9919397174     4.8751399733     2.6638531339
 He     6.2799807743    -0.9363744572    -6.3509299246
          2
Energy: -0.012646174618563287 Kcal/mole
 He    -3.3151117303    -0.0848312269    -3.8608544188
 He    -1.6655366106     1.1827328193    -5.5041644634
          2
Energy: -8.046684725960419E-7 Kcal/mole
 He     6.5453018786    -4.1661903477    -2.1359061635
 He    -6.3810015515     7.1958934603     0.4070149627
          2
Energy: -1.3946895838705253E-5 Kcal/mole
 He     6.5511107714     4.0721534753    -5.6890529269
 He    -3.1514407116     6.0080858931    -1.3239888302
          2
Energy: -1.7500928568970446E-5 Kcal/mole
 He     1.2338718687    -2.1151714075    -0.5141639131
 He     7.3431597025     2.8335715898     6.3125564154
          2
Energy: -9.088769614989875E-7 Kcal/mole
 He    -3.2679702894     6.0836352711     2.0236587269
 He     6.8351331272    -6.2139221407    -4.0845627869
          2
Energy: -3.4745414549282958E-6 Kcal/mole
 He     5.6930677453     0.2080942974    -6.6493208153
 He    -5.4194049815    -5.5275077943    -1.2204077223
          2
Energy: -0.008563276035148601 Kcal/mole
 He    -3.8702339639    -2.6594977470     1.8112892261
 He    -1.4405666660    -1.7214445953     4.3396985940
          2
Energy: -0.018356188258071338 Kcal/mole
 He     2.2009482548    -2.6706270469    -7.0236737106
 He    -0.3342808748    -1.0278270221    -7.3172821148
          2
Energy: -0.019999999996762538 Kcal/mole
 He     2.0876290870    -2.5419034279    -7.2556863219
 He    -0.2105616432    -0.8269594209    -7.1634416022
