          2
Energy: -1.728269787701919E-4 Kcal/mole
 He     4.2238327906    -2.5459343891     3.9519792019
 He     3.1620696987    -1.5057407341    -2.9972471425
