          5
Energy: -0.009148290526036043 Kcal/mole
 Ne     5.0050255684     2.1073639658     6.9319990325
 Ne    -6.4112814460    -4.2367500562     0.7913620387
 Ne     5.9986638542     3.4026007598    -3.0539068890
 Ne    -5.1531060316    -3.9418833816    -6.0027255012
 Ne     5.0583390014     6.6374324256    -6.7668790445
          5
Energy: -0.0020725286930143114 Kcal/mole
 Ne    -5.5919136275    -5.8827973235     3.2913680734
 Ne     4.3277275728    -4.2118732470     2.2803900915
 Ne     3.9539444269     6.3822706190    -1.2607697864
 Ne     6.1867071543    -5.5026467578    -5.3435954131
 Ne    -2.2235324689     5.8185969686    -4.0439934073
          5
Energy: -0.07367055705450891 Kcal/mole
 Ne     0.5541401681     2.5357087765     2.9140172073
 Ne    -6.3560677146     4.9792388859     2.5370350645
 Ne     0.5375741194    -3.9669439195     1.3907482149
 Ne    -5.9097085890    -1.6990815581    -3.2935547992
 Ne    -1.7946837023     4.3605092667     4.4013179183
          5
Energy: -0.008859382002002014 Kcal/mole
 Ne    -7.0361107961    -5.3809630087    -2.8977178093
 Ne     1.5843743434     3.6414891904     3.4632698658
 Ne     3.7467850042    -0.7335210114     4.6486841749
 Ne    -4.9380326676     0.3346217722     6.3117393364
 Ne    -3.5396905567     3.6675325525    -6.0083162190
          5
Energy: -0.0903049784988509 Kcal/mole
 Ne    -2.2186114669    -0.5511369662     3.9890769231
 Ne    -0.6073166334    -3.1385798148     3.4761151906
 Ne     7.0557585108    -5.1448965416     3.5729109485
 Ne    -0.3922908887    -7.2482551925     2.1483723173
 Ne     2.3280398646     4.7767810134     2.3294560822
          5
Energy: -0.13644823283282032 Kcal/mole
 Ne    -5.4441261402    -3.0526888481    -3.9147470558
 Ne     1.5056009231     5.2835847755    -1.9715605497
 Ne     7.3279716222    -0.6295157250     2.0667768459
 Ne    -3.8173786035    -2.7420271379    -1.0671673114
 Ne    -2.1603620190    -0.2508635882    -1.2060796542
          5
Energy: -0.00471316549683468 Kcal/mole
 Ne     4.2909485271     7.3629012373     5.9636595044
 Ne     7.2581908230     6.2017508194    -0.9394286347
 Ne    -1.5028801639     6.5955751919    -7.3904988649
 Ne     5.3276936989     0.8320199631    -0.3350592778
 Ne     7.2843551852    -6.4810311571    -6.6981588925
          5
Energy: -0.18718545842722598 Kcal/mole
 Ne     6.3308319208    -2.8187564733    -1.6602512941
 Ne     0.2828172072    -1.5818752881     2.7790007248
 Ne    -0.5145946640    -4.7074367036     2.6693697377
 Ne     0.1254568537     3.5513746965     5.1629580339
 Ne    -2.1320949869    -2.4661994309     4.0903786344
          5
Energy: -0.4697281804200805 Kcal/mole
 Ne    -3.2360940254    -6.4439014544     0.0387877300
 Ne    -5.2505213940    -6.9107320138     2.0846925082
 Ne    -7.0517749466    -5.8977702310    -0.3698994575
 Ne    -1.7712244715    -3.3313435462     0.6972497134
 Ne    -5.0522267756    -3.9413841092     0.7192745248
          5
Energy: -0.6280498856875137 Kcal/mole
 Ne    -3.2481026675    -6.3617614753    -0.1087699554
 Ne    -5.1220773441    -6.3671536395     2.3934484343
 Ne    -6.3346120751    -6.5300293806    -0.4658497317
 Ne    -2.5804316071    -4.5485367446     2.3258249587
 Ne    -5.0228365220    -3.8792266324     0.5234761233
