          5
Energy: -0.007907797819715064 Kcal/mole
 Ne     0.7937998472    -7.1675710805    -7.2296024361
 Ne    -6.4414191691     0.2417062014    -1.9904018801
 Ne    -0.7144369875    -2.0425535029    -6.6751837571
 Ne    -2.8186789675    -3.2159850868     6.3633607867
 Ne    -7.2717745355     3.6510715840     3.5902400112
          5
Energy: -0.013938149560379334 Kcal/mole
 Ne    -0.2905906568    -2.0316834842     1.0275657476
 Ne    -4.6854416596     2.6853880740    -7.1098772267
 Ne     1.6036944838     1.2350105528    -5.9772301983
 Ne     2.4509574818     3.8816605356     0.5909653325
 Ne     0.3448567768    -1.0123157920     5.8421642760
          5
Energy: -0.008880562886046764 Kcal/mole
 Ne    -3.7792599749    -1.9115960405    -6.1542711627
 Ne     1.4407945069     3.9262187325     1.4739516224
 Ne    -0.5223270408     5.6557532881    -4.2772328688
 Ne     0.1528576650    -5.2754745279     2.8183707825
 Ne     1.1106587323    -1.8079500502    -3.3109866351
          5
Energy: -0.016759484123797172 Kcal/mole
 Ne    -1.0040420197     2.7979768540     4.9349634047
 Ne     5.8740959119    -6.2254514064     5.3812305073
 Ne     4.2243213364    -1.4326110298     1.2436111101
 Ne     1.3045869440    -6.5988926082     6.4752412061
 Ne     0.1316445554     1.8061311518    -2.4134075101
          5
Energy: -0.014980001029506446 Kcal/mole
 Ne    -7.0659805986    -7.4602551396     5.6396740269
 Ne     2.0437442950     0.2877904685     2.8176104333
 Ne     1.4154131321    -4.3274505317    -6.7863404852
 Ne    -7.1753377477    -3.4022535371     2.9197229344
 Ne     0.2369058585    -4.6155066833     0.9518051281
          5
Energy: -0.0039003058258044146 Kcal/mole
 Ne    -4.1980252182     5.0525224230     4.3300304885
 Ne     4.2206903095     6.7439841831     2.5973815660
 Ne     2.3435738307    -4.1419538290     3.7257976996
 Ne    -1.0681635873     5.8183107979    -7.4766396364
 Ne    -4.3842617819    -0.9062482011     3.3112328317
          5
Energy: -0.02076686752749727 Kcal/mole
 Ne    -2.7778523026    -2.7173936832    -0.6043069719
 Ne     3.8410507396    -5.9264570086    -3.6895818803
 Ne     0.6794082613     1.8886316089    -4.7751662625
 Ne    -4.9790939275    -0.8484727828    -4.1060733729
 Ne     4.5221555488     4.3882566777    -0.9557562637
          5
Energy: -0.20411973230630415 Kcal/mole
 Ne    -7.2063812072     0.0725305861     1.2948758542
 Ne    -5.5182468933     2.3388027673    -2.1370708075
 Ne     2.9049092756    -6.3147210292     3.3693636178
 Ne    -3.7556967810    -0.2210033823    -2.9513272500
 Ne    -5.7634610383    -2.2093243432    -1.0441394703
          5
Energy: -0.11680701183877513 Kcal/mole
 Ne    -0.6505369809     3.2001891894    -2.5791482430
 Ne    -5.5546871912     4.9955784097    -4.6797437685
 Ne     0.7703089049    -1.6174915204     0.9504328063
 Ne     6.5634780606     7.1535471203    -4.1192821779
 Ne    -1.1702573074     0.5478844610    -1.2468595519
          5
Energy: -0.6277927837253727 Kcal/mole
 Ne    -2.9077554719     3.6420103359    -1.4718929631
 Ne    -4.6560767107     1.0694800745    -1.4094753043
 Ne    -2.9612388158     1.8687902561     1.0934475201
 Ne    -0.3066481696     3.1958594843     0.1754270165
 Ne    -1.5400176109     0.8300802691    -1.4522606839
