          5
Energy: -0.02456742548733488 Kcal/mole
 Ne    -4.0740269963    -2.0417469368    -1.6489113910
 Ne    -4.6394212306    -6.3072258820    -1.0096293205
 Ne    -4.0751770997    -6.2855738334    -6.3976178369
 Ne    -1.7484927456     3.1720128268     6.8285944242
 Ne     6.6877940809     3.6359323508    -6.7178727320
          5
Energy: -0.055277265807209576 Kcal/mole
 Ne     4.8770444359    -4.2564706302    -3.1835589139
 Ne    -2.5299898306     4.5032109547     7.1967433636
 Ne    -1.2981220593    -2.5317511632    -0.6984265759
 Ne     3.2015211127    -5.0554439809    -0.1229760525
 Ne     7.4749677484     3.9723408862    -6.0194414285
          5
Energy: -0.01427619602830858 Kcal/mole
 Ne    -1.8557784367    -1.8561229046    -4.0184822114
 Ne    -6.0179012382    -0.7446235052    -6.5070447731
 Ne    -4.1076608891     2.4893859939     4.3934328367
 Ne    -3.6195955224    -2.7990214975     2.5846729553
 Ne    -3.9959961438     7.3492656222    -6.9168889448
          5
Energy: -0.06884753559892984 Kcal/mole
 Ne     3.7749750728     6.4914513828     0.9501777178
 Ne     0.8600198286    -3.4217601414     6.0895393997
 Ne    -0.0039850980    -4.3900509592     0.5839664226
 Ne    -5.6212671871    -2.9678128426     2.0361374341
 Ne    -3.1676337587    -1.9391514942    -0.5893535173
          5
Energy: -5.842824300474101E-4 Kcal/mole
 Ne     6.9583903202     2.8958763658    -7.4003623476
 Ne     6.8768553193    -5.7117814022    -2.8466377596
 Ne     0.7424096160     1.0925738606     7.0802812413
 Ne    -3.1346342631    -7.2012400885    -0.7912610874
 Ne    -2.1916160405     4.6429895902    -2.1937717703
          5
Energy: -0.06798166369773846 Kcal/mole
 Ne    -7.0310366876     6.8733961076     4.5767738610
 Ne     2.8329928677    -6.4677169060    -0.4549078757
 Ne    -3.0075144235     2.3216202550    -7.1959766902
 Ne     4.9250898142     4.7399364432     1.4290284861
 Ne    -4.2593434596     4.5766659420    -5.5627382160
          5
Energy: -0.003081952369639207 Kcal/mole
 Ne    -6.4223277055     5.5857868063     2.8836849500
 Ne    -5.5858649442    -0.9709090992    -0.2271569686
 Ne     4.1067354183     6.9029872003    -1.7153512681
 Ne     5.6350393337    -4.0757743122    -6.2103483986
 Ne    -0.6196344729    -5.1567097799    -1.2250052269
          5
Energy: -0.049546563386675395 Kcal/mole
 Ne    -4.7028984116     4.5175286221    -1.4259975074
 Ne    -6.6008627581    -0.0385278976    -0.7070259426
 Ne    -0.7773129171     7.3672224008     2.3314390294
 Ne    -3.9994613219     2.4102080303     2.7325782037
 Ne     0.9874592051     7.1517894392    -1.8233759832
          5
Energy: -0.13416833411152893 Kcal/mole
 Ne     5.6396920275    -4.7766738717     4.4740764787
 Ne     7.2112879334    -6.2511489413     6.8201463930
 Ne    -3.2601560736     4.0964486313    -4.9577467271
 Ne    -0.1767901862     3.8229129893    -3.8991137235
 Ne    -4.1818878926     1.4938273734     2.2458327271
          5
Energy: -0.2760805771930632 Kcal/mole
 Ne     5.1706328591    -4.4194453503     5.0384546427
 Ne     7.4974355154    -5.9498884581     6.4466845653
 Ne    -3.1666482676     3.0397881148    -4.6629300916
 Ne    -2.1037059468     4.0499128486    -1.9055538179
 Ne    -3.9009271226     1.5028103204    -2.0483313944
