          5
Energy: -0.6277927837253727 Kcal/mole
 Ne    -2.9077554719     3.6420103359    -1.4718929631
 Ne    -4.6560767107     1.0694800745    -1.4094753043
 Ne    -2.9612388158     1.8687902561     1.0934475201
 Ne    -0.3066481696     3.1958594843     0.1754270165
 Ne    -1.5400176109     0.8300802691    -1.4522606839
