          5
Energy: -0.6279463012923854 Kcal/mole
 Ne     0.1576622381     3.8224812597     3.9315162213
 Ne    -1.0176756952     4.7189671777     1.1925106254
 Ne    -2.5035123339     2.5561398965     2.8968449633
 Ne     0.2189757900     1.8791710329     1.4841434956
 Ne    -2.3562607020     2.2747570563    -0.2109814401
