          3
Energy: -0.9509981956247686 Kcal/mole
 Kr     5.2216877440    -5.7126968505     0.3480522757
 Kr     2.1315290453    -6.4452182831     2.8910810617
 Kr     1.7792480592    -3.5646789829     0.0410211567
