          3
Energy: -0.9509956566209354 Kcal/mole
 Kr     0.8356604769     5.9506834987     0.3657614418
 Kr     4.2859895182     3.9827115458    -0.5199383845
 Kr     4.0226500020     7.9979816365    -1.1211689565
