          3
Energy: -0.9509956151013015 Kcal/mole
 Kr    -5.2614493770     0.5509269619    -2.3128848169
 Kr    -4.9936742086     0.6905093027     1.7456889144
 Kr    -1.8413244772    -0.6333183149    -0.4554227892
