          3
Energy: -0.015555324988527863 Kcal/mole
 Kr    -4.8196992822    -2.9823648252     0.9961872731
 Kr     4.0803818123     4.6648193804     1.5243603190
 Kr     2.1211185239    -4.0901109406    -2.6789981287
