          3
Energy: -0.9509955841891505 Kcal/mole
 Kr     5.9131684035    -8.0202958769    -5.7439026031
 Kr     3.4537016491    -6.5206935614    -2.8732228670
 Kr     7.4676559418    -5.9228728514    -2.6225707253
