          5
Energy: -0.08739087020006799 Kcal/mole
 Ne     7.3768402831     1.3702406324     0.9629288897
 Ne     6.8388637885     5.4195483034     7.3369701192
 Ne    -1.7058625903     5.7179972897     2.4560635518
 Ne    -3.3859367721     4.1903285095     5.0687053990
 Ne     5.3777721278     4.3964985768    -0.5012281656
          5
Energy: -0.10429661238255186 Kcal/mole
 Ne    -1.6428937459     1.3426631946    -6.5055961063
 Ne     7.2227585329     1.8206365074    -4.4490193261
 Ne     1.7027787233     3.3720145255     0.0814669637
 Ne    -1.7957248486     4.0059242077    -5.4981894660
 Ne     0.0458494725     4.7847484114    -1.8061962220
          5
Energy: -0.011536447036543902 Kcal/mole
 Ne    -0.0196473515    -2.0288703963    -4.5426187710
 Ne     5.6204105218     4.5351090947     5.8479455833
 Ne    -2.4662370069    -6.3526745603     3.4737310404
 Ne     5.5314323599     2.0527826996     1.8076698536
 Ne    -4.6653807237     5.4160040779    -4.6131982982
          5
Energy: -0.004500974880065846 Kcal/mole
 Ne     4.8644740456     0.4565567499    -6.6842135274
 Ne     5.8757776341    -2.8896068558     3.1910121809
 Ne    -0.9741205888    -3.7286091933     0.4571209286
 Ne    -6.3150417502    -4.4221320640     2.6581451507
 Ne     2.5400914118     5.8366794886     5.9804715017
          5
Energy: -0.016403301060493203 Kcal/mole
 Ne     1.8216976002     5.6504105528     0.1339772454
 Ne    -4.6172471463     5.4103850129     1.1669538842
 Ne    -5.3283996159    -7.4235658551     2.8530000237
 Ne     5.5860527196     2.6237957870     1.2486372568
 Ne    -4.1164371506     4.0136595365    -3.9539166326
          5
Energy: -0.0038818607754536267 Kcal/mole
 Ne     3.6565122554     5.8567857318     6.8838276233
 Ne    -7.1675688805     6.8923016017    -1.0433251854
 Ne    -2.7140638537    -1.7641912186    -2.3483320027
 Ne    -5.8869798166     4.1971070856     4.9618056631
 Ne     0.0637473265     1.7437596649    -6.8668488715
          5
Energy: -0.009474788939677858 Kcal/mole
 Ne    -5.1919081831     4.6660723956     4.7994305323
 Ne    -3.6319853452    -1.1310238979    -3.9262413360
 Ne    -1.9379370446    -0.4522726417     2.0599039637
 Ne    -5.8348698380    -4.7128233733     0.2887445023
 Ne     4.8808091737     6.3372551385     2.6292577485
          5
Energy: -0.009121423111164649 Kcal/mole
 Ne     7.0358513189    -2.9713022610     2.1542850593
 Ne    -4.2379931077     3.3309011439    -1.4620920176
 Ne    -4.0961511187    -0.8188112574    -6.0275247266
 Ne     0.9724434060     6.7089152551     0.0029157119
 Ne     5.6031378943     2.0968984971    -0.4883906661
          5
Energy: -0.46867910707382165 Kcal/mole
 Ne     0.3222405386    -3.5610252571    -0.3314703309
 Ne    -1.8379459388    -2.5145707644    -2.3649904495
 Ne    -0.0229964008    -6.4251473323     0.8339689929
 Ne     1.6862633011    -7.0772349551    -1.4370256126
 Ne    -0.9800894703    -5.6529584066    -2.5539343792
          5
Energy: -0.6278896838517316 Kcal/mole
 Ne     0.6862860140    -3.8730088681    -1.1095316798
 Ne    -2.3508398357    -3.3032506723    -0.7925401517
 Ne    -1.0295471283    -5.6554600598     0.7892968073
 Ne     1.2082118525    -6.9317142260    -0.9698225003
 Ne    -1.4064101737    -5.8535154361    -2.2867749232
