          5
Energy: -0.6280530080543238 Kcal/mole
 Ne    -2.7739263696    -0.8723795897    -4.7408981364
 Ne    -0.7663158852     1.5029595965    -5.0369217773
 Ne    -1.6356251114     0.5318415275    -2.2097462969
 Ne    -3.1633399219     1.2580262451    -6.9832241820
 Ne    -3.6723982760     2.0377138048    -4.0090046741
