          5
Energy: -0.02265154582932467 Kcal/mole
 Ne     4.0576587802    -3.7656893996    -7.4178470375
 Ne     1.0879769552    -0.9246468350     1.5232995732
 Ne     3.9098643581    -2.1270448597    -2.0841652682
 Ne     0.4950399031     5.3658706676    -2.3163229366
 Ne     6.4752390634     1.4568142519    -6.1902042238
          5
Energy: -0.028352024317617124 Kcal/mole
 Ne    -3.5659765156    -3.9927858906     1.8825196956
 Ne     0.8508692741    -5.1654915552    -0.0753880552
 Ne     1.2944346150     5.5163967297     3.4732501344
 Ne    -2.5034146103     7.1299490790     4.5211880472
 Ne    -4.0923706457     1.9884706066    -7.0105920543
          5
Energy: -0.08189426978363779 Kcal/mole
 Ne    -2.7227092742     1.5058676256     6.4644492000
 Ne     6.8921466397    -0.1564285158     2.9343395504
 Ne     4.3721012832    -1.5901400139     3.6782489858
 Ne    -7.0372805860     5.8226854548     3.1130989104
 Ne     5.0291374103    -4.5931495181     0.2164695401
          5
Energy: -0.013475968046584312 Kcal/mole
 Ne     3.9091672812     1.1767217554    -2.3929207939
 Ne     4.6698494026    -5.5859727557    -4.1956349304
 Ne    -2.1200679399    -2.8106285193    -5.1358843426
 Ne    -1.5543668170     4.2005984766     6.9271499447
 Ne     0.2713802073     2.6081661361    -5.5170609946
          5
Energy: -0.005622356804980448 Kcal/mole
 Ne     6.2259375858    -3.7764854097     5.4436686886
 Ne     3.4645820930     6.6749287306     2.9641833420
 Ne     1.0261321697    -3.1620623918    -6.9954121326
 Ne    -0.4972767669     6.0982618337    -1.2490476956
 Ne     5.4974561722    -3.8610492998    -1.5458783312
          5
Energy: -0.0015859522202431495 Kcal/mole
 Ne     1.7531897983     5.4951653515    -5.7084655727
 Ne     6.8748418976    -4.4586370223     0.4339637850
 Ne    -0.8933029740    -5.8542232637    -4.9920636339
 Ne    -6.3011568484     5.6670609262    -0.5712102806
 Ne    -3.5283145741     6.1591788835     5.8106264642
          5
Energy: -0.028040973316473643 Kcal/mole
 Ne    -6.2478786609     0.8562552638     4.4944408731
 Ne     4.7340630284    -2.6746369102    -5.8695775991
 Ne     5.4628066933    -3.3545983499     1.4300994759
 Ne    -6.8439691045     1.2556735558    -0.6292787198
 Ne     5.6310669524     0.0905451536    -2.3981036298
          5
Energy: -0.015262671120002177 Kcal/mole
 Ne     3.7052954207    -6.8464769863    -6.2259815114
 Ne    -5.2777629204     3.0978367486    -1.3140443156
 Ne     0.8701541616    -1.1867170605     5.2713528567
 Ne     6.3066391496     6.3894372319    -5.9785368984
 Ne     3.4303912412    -4.7986022541     5.9166136653
          5
Energy: -0.030238280799165993 Kcal/mole
 Ne     4.6164870863     1.2725663659     1.8796066741
 Ne     0.9025151847     4.6912086808    -6.1204892769
 Ne    -5.6104916704    -2.8983160742    -1.1593987424
 Ne     1.5281588768     1.7264978790     4.7270108574
 Ne    -1.0845108405     5.1544088285    -1.5322322489
          5
Energy: -0.6280361460646781 Kcal/mole
 Ne     1.5962048638     2.9016248818     0.1879611687
 Ne     0.1082855788     0.4908492786    -4.0028280428
 Ne    -0.7139247112     1.2903195105    -1.1124109461
 Ne     2.2696767194     0.5883519470    -1.7657228679
 Ne     1.0230953505     3.2358915499    -2.8526690885
