          5
Energy: -0.6279562366322531 Kcal/mole
 Ne    -2.7199677416    -3.9398760182    -0.8680374654
 Ne    -3.3020020674    -1.0403676500     0.1136327016
 Ne    -3.4588843604    -4.1625927702    -3.8913386481
 Ne    -5.1606935045    -2.3707614455    -1.9901888016
 Ne    -2.2834451005    -1.4912925130    -2.7861521969
