          2
Energy: -0.06899999996679917 Kcal/mole
 Ne     4.4399276976    -0.7786952592    -0.4709328309
 Ne     3.4445908052    -0.2613615695    -3.3827786264
