          2
Energy: -0.06899999993142983 Kcal/mole
 Ne     4.7240268146     1.4897021209     2.7153534629
 Ne     5.8269708934     0.8807226731    -0.1394505132
