          2
Energy: -0.06899999994303983 Kcal/mole
 Ne    -1.5711492642     5.0107678830    -4.0954750205
 Ne     0.5668814278     4.9456302174    -1.8235120052
