          2
Energy: -0.06899999990209658 Kcal/mole
 Ne    -3.0749792041     0.0022965412     1.8440705044
 Ne    -4.6389065517     1.7776529064    -0.1905091277
