          2
Energy: -6.478491307992178E-4 Kcal/mole
 Ne    -6.8349352346     1.7604952678     0.2189338497
 Ne    -2.6178749882    -0.2132893158    -5.8165761468
          2
Energy: -2.858695389374935E-4 Kcal/mole
 Ne    -2.0882447495     4.7336354056     7.1019259055
 Ne     6.1174029524     5.9475279033     4.3539146861
          2
Energy: -3.4471494806893717E-5 Kcal/mole
 Ne    -5.0309982531     0.2823940592    -3.8280954875
 Ne     2.5627546350     2.4402107674     5.7783034049
          2
Energy: -1.6217105662137137E-4 Kcal/mole
 Ne     0.9186163019     3.9117145541     6.5937925827
 Ne    -0.1468543893     0.6238846757    -2.3677076149
          2
Energy: -0.022719264848590322 Kcal/mole
 Ne    -4.6247508284    -0.1903416334     0.2726497121
 Ne    -3.9231937002     2.5167166193     3.3374209525
          2
Energy: -1.1862440365844878E-5 Kcal/mole
 Ne    -7.3559657002    -4.5129061360    -3.7377634518
 Ne     4.0613999705    -2.1003256377     5.4520009180
          2
Energy: -0.06364034211764728 Kcal/mole
 Ne    -2.2066751659    -1.9763270831     2.5999069153
 Ne    -0.6377696774    -3.6901844235     4.4899518727
          2
Energy: -2.7793022069442793E-5 Kcal/mole
 Ne    -4.1840030164     3.6454611992    -6.8250398405
 Ne     2.3492714819    -3.0817583924     2.0164670843
          2
Energy: -6.833730514574403E-5 Kcal/mole
 Ne    -4.6059799187     7.3446056512    -6.3422931209
 Ne     4.0967747693     5.1921509339     0.1918348171
          2
Energy: -0.06899999994303983 Kcal/mole
 Ne    -1.5711492642     5.0107678830    -4.0954750205
 Ne     0.5668814278     4.9456302174    -1.8235120052
