          2
Energy: -0.0027217441083099048 Kcal/mole
 Ne     4.3119301033    -1.4651752659    -1.1617105203
 Ne    -1.4715544789    -2.7489893057    -0.2548409638
