          2
Energy: -4.841199332452684E-5 Kcal/mole
 Ne    -2.6294264897     7.1572689174     1.8979639667
 Ne     6.0216981447    -0.6744045369     0.5278855699
          2
Energy: -1.372094211608948E-4 Kcal/mole
 Ne    -7.1639578769    -3.0048036535    -1.7087816470
 Ne    -4.3601260868     6.4592355354    -1.3730643931
          2
Energy: -3.5494892315558675E-4 Kcal/mole
 Ne     1.9222587085    -3.4668844529     2.9701938237
 Ne    -5.3032365661    -6.2488154705     6.3003588377
          2
Energy: -1.0138830401978495E-4 Kcal/mole
 Ne     3.2270747017     2.8637276066    -6.2742747720
 Ne     2.7894958269    -6.4047686260    -1.6051538850
          2
Energy: -2.673893591354235E-4 Kcal/mole
 Ne    -3.6005452261    -4.9367177992     3.6783403984
 Ne     4.9956339818    -6.5445817311     2.4134075912
          2
Energy: -0.06813140590445754 Kcal/mole
 Ne     4.2407201560    -5.8400943457    -4.9632668640
 Ne     3.0640134977    -3.2892768934    -6.1907713420
          2
Energy: -0.001417091050018178 Kcal/mole
 Ne    -2.0807417558    -1.3872881921    -4.9808058407
 Ne    -1.6765896457     5.1922853059    -3.8552757892
          2
Energy: -1.7174369212855668E-5 Kcal/mole
 Ne     4.4223954512     6.5914614565    -6.2325257403
 Ne    -1.4359959939     4.2188164645     6.2203727992
          2
Energy: -4.6958374683206424E-5 Kcal/mole
 Ne     1.7778904970     0.1778781345     6.0962621309
 Ne    -6.8491177757     2.9293713233    -1.4845359447
          2
Energy: -0.06899999990209658 Kcal/mole
 Ne    -3.0749792041     0.0022965412     1.8440705044
 Ne    -4.6389065517     1.7776529064    -0.1905091277
