          3
Energy: -1.2989960173929438 Kcal/mole
 Xe    -7.4090778598    -4.6393373327     1.2697806891
 Xe    -3.6400958272    -4.2665217233     3.5440143744
 Xe    -7.2543649439    -2.1112559657     4.8902645550
