          3
Energy: -0.43365783297809174 Kcal/mole
 Xe    -3.1977498998    -6.8493978623     8.1760243633
 Xe    -6.5842745380    -5.7948174241    -7.5304731556
 Xe     0.3109686886    -7.4283211045     5.5227726613
          3
Energy: -0.5052001929375347 Kcal/mole
 Xe     5.9894784381     5.8601443741     1.6606680418
 Xe     5.4552456425     1.4934454357     6.3144462558
 Xe     3.3420872400    -1.7949269827     3.7626531474
          3
Energy: -0.21844448717351572 Kcal/mole
 Xe    -7.6564127572     0.8994863737     1.6270585071
 Xe     4.5586585750     3.7426089075    -0.3004943705
 Xe     6.8173203125    -0.9080703232    -1.9297275180
          3
Energy: -1.1075027749454902 Kcal/mole
 Xe     5.6425899593    -0.2609611177     2.3773360657
 Xe     7.6861347831    -0.8369684005     6.4112657549
 Xe     3.4657885387     2.1122166845     5.4856287396
          3
Energy: -0.41721926475310683 Kcal/mole
 Xe    -1.8288816474    -4.7549585176     1.0848736763
 Xe     2.0114697481    -0.9011377736    -6.9529940650
 Xe     1.4283218280    -5.5513961653     3.7098639262
          3
Energy: -1.2715793783902702 Kcal/mole
 Xe    -1.4223425819     0.2907883381     6.5521444638
 Xe    -0.9867617202     0.8188871173     2.0595770254
 Xe     2.5327615411     0.1165075801     4.8197304141
          3
Energy: -1.2823422487318883 Kcal/mole
 Xe     2.8355321957     4.9087776378     3.8642460651
 Xe     4.7717249973     8.2318883698     6.2116642419
 Xe     6.9878023099     4.6688773480     5.0617646967
          3
Energy: -1.159324632769736 Kcal/mole
 Xe    -0.6624956308     0.9816927610     5.8281433507
 Xe    -0.5267125123    -2.0056458475     2.3853944984
 Xe    -4.2781889918    -0.0790178685     2.7208847816
          3
Energy: -1.2125437906671157 Kcal/mole
 Xe    -1.7299854970     8.1007060217     0.9468444929
 Xe     1.3535569156     7.6155533501    -2.2515507361
 Xe    -3.0729289411     7.6814298568    -2.9678960307
          3
Energy: -1.2989899588150633 Kcal/mole
 Xe    -1.3978548855     7.5681023779     1.1570968979
 Xe     1.3203941758     8.1071841168    -2.2837861608
 Xe    -3.0145718044     7.5810172356    -2.9565245509
