          3
Energy: -0.027021080814900608 Kcal/mole
 Xe    -5.1547766133    -5.0926545969     2.3649067367
 Xe     0.4914195800    -0.9519251277    -3.6429753263
 Xe     4.2710794106    -3.8531301347     4.4821086782
