          3
Energy: -1.2989945182197267 Kcal/mole
 Xe     1.4500940128    -5.2983427285    -2.2058772062
 Xe     4.6388042175    -3.7553797487     0.4338763295
 Xe     0.4237527487    -3.6039318542     1.7445930116
