          3
Energy: -1.2989899588150633 Kcal/mole
 Xe    -1.3978548855     7.5681023779     1.1570968979
 Xe     1.3203941758     8.1071841168    -2.2837861608
 Xe    -3.0145718044     7.5810172356    -2.9565245509
