          3
Energy: -0.4615674775935435 Kcal/mole
 Xe    -3.0478379370    -6.4710788982     3.9389149761
 Xe     2.1807978554    -4.3841830160     7.9602709824
 Xe     6.5127410150    -2.6870869603     7.7919952431
          3
Energy: -0.046087958579470296 Kcal/mole
 Xe    -3.7292741808    -3.6658152691     0.3939149056
 Xe    -4.8239916225     1.4294566225     6.5486199757
 Xe    -5.9229087175    -8.2105061754     7.3829786473
          3
Energy: -0.42886378890292837 Kcal/mole
 Xe    -4.0136684548    -7.1239883073    -6.5461638258
 Xe     2.1852768534    -7.5976693750    -5.4664762644
 Xe    -7.2070122604    -5.4516024175    -3.1506432912
          3
Energy: -0.05575138410842934 Kcal/mole
 Xe     5.3259212711     2.4040415265     5.9029251522
 Xe    -7.1751990705     5.4090372622    -2.1433699562
 Xe    -1.6499739413     7.2256991285    -5.9725552870
          3
Energy: -0.6898887243909219 Kcal/mole
 Xe    -6.0592959212     2.3043995721    -0.8923076740
 Xe    -4.0278965253     1.7522642143     3.7931723682
 Xe    -7.6032827673     5.2440010635    -4.1556375763
          3
Energy: -0.5891305414652864 Kcal/mole
 Xe     4.2193464894     1.4569498465     1.0701699248
 Xe    -4.4438034121     3.7470289525     0.8321564745
 Xe     0.3696850889     4.6100836214    -0.3420723800
          3
Energy: -0.9017222533346683 Kcal/mole
 Xe    -2.7452648124    -2.9736788467     4.9432136775
 Xe     1.1472401829     2.1936638180     4.0626022013
 Xe    -1.7666815316    -0.4652027369     1.5579186141
          3
Energy: -1.0563501367521475 Kcal/mole
 Xe     4.7515512665     1.2185140066    -6.2925368460
 Xe     3.8846894498    -3.4744880951    -6.7055382904
 Xe     7.9854366649    -2.7675667410    -5.6730822758
          3
Energy: -1.2800113122813475 Kcal/mole
 Xe     4.6125601434    -0.5493859838    -6.6062659614
 Xe     7.4946246851    -2.7605035927    -4.2970248352
 Xe     3.5049197880    -4.4063125978    -4.6946520326
          3
Energy: -1.2989929718706497 Kcal/mole
 Xe     4.4273732438    -0.5352873132    -6.6589557200
 Xe     7.5621821136    -2.8288891794    -4.5526719564
 Xe     3.3525734797    -4.1458632227    -4.3491997348
