          3
Energy: -1.2989929718706497 Kcal/mole
 Xe     4.4273732438    -0.5352873132    -6.6589557200
 Xe     7.5621821136    -2.8288891794    -4.5526719564
 Xe     3.3525734797    -4.1458632227    -4.3491997348
