          6
Energy: -0.08900737073733536 Kcal/mole
 Xe    -4.3203253955     0.1728645954     2.8992898160
 Xe    -1.1515019542     7.4339061203     0.0626161510
 Xe     6.5507656940     5.2332698467    -1.6075165392
 Xe    -2.7982478848    -1.4667693260    -6.3223054026
 Xe     5.4683396474    -6.0195905630     3.9498307886
 Xe     7.8178510633    -5.4040709978    -3.8315908406
