          6
Energy: -5.325251205624631 Kcal/mole
 Xe    -2.3292497846     1.5580304820     9.8550486917
 Xe    -0.7775585900    -1.2568786770     3.4467134515
 Xe    -1.7699386659    -2.2185433035     7.6409005868
 Xe     0.7110226485     1.2991794921     6.6856222505
 Xe    -3.5969913520     1.3480914189     5.6642557596
 Xe    -4.8115368655    -2.7103992866     4.5082345639
