          6
Energy: -0.15833476688843184 Kcal/mole
 Xe     5.1571654502     8.1689378924   -10.6017127707
 Xe    -2.2082098712     6.6601739430    -3.9168896283
 Xe     1.7878054316    -4.7618218575     3.9025801072
 Xe    -3.7504681142    -3.1989794353    -7.6791256082
 Xe    -8.1119498309    -7.5428128718    -1.8932702191
 Xe    -7.3256151460    -5.4634454899     3.8355206396
          6
Energy: -1.8551240643579208 Kcal/mole
 Xe    -7.4353915386     7.0823531433     6.2992988917
 Xe     4.2071109239     7.2536970206    -9.3250730587
 Xe    -0.3281739188     3.6855788092     4.8246940630
 Xe     1.2903958506     3.1430623870     9.0452825703
 Xe    -2.9472758068     4.2354815758     8.5478487507
 Xe     4.8206697569     1.4551019956    10.4677154738
          6
Energy: -1.1704151679712265 Kcal/mole
 Xe     7.5956359459     0.6989051965   -11.1935700447
 Xe    -4.4324513013     3.9066492704     6.4231638004
 Xe    -6.2729518258     0.3619921997     4.7762926708
 Xe    -4.8263778497     4.1377479849     1.5443627844
 Xe    -4.6933282343    -9.8473086997    10.3949609493
 Xe    -6.7490167958     6.4535462269    11.4615260243
          6
Energy: -4.673770860195031 Kcal/mole
 Xe    -3.2394890990    -3.7917400168     6.9144213299
 Xe     0.9492184514    -3.3333627352     8.2149687455
 Xe     1.1376523505    -1.1417372572     3.9898149556
 Xe    -3.0591152657    -3.3561720032     2.7784292516
 Xe    -1.3668784643     0.5532047173     6.8199274343
 Xe     0.4809005088    -5.5420767968     4.4137513242
          6
Energy: -4.227516943218268 Kcal/mole
 Xe    -0.8692981968    -3.7568295445     6.1486136460
 Xe    -0.0451496046    -4.5466453714    10.2536706691
 Xe    -1.1131986308     0.2805353863     4.2850712220
 Xe    -2.7037646683    -1.1477573571     9.2377981593
 Xe     1.7913051785    -1.3911825747     8.2205027716
 Xe    -3.4909598133    -2.7929893200     2.3953717154
          6
Energy: -3.6922906909274262 Kcal/mole
 Xe    -0.9689537581    -6.3014842904     4.3558546183
 Xe     2.2320103283    -4.0039204609     2.0174556730
 Xe     4.8867932605    -2.2393750995     4.7575867293
 Xe     1.2241668640    -4.1173599726     7.5192274620
 Xe    -1.2029794723    -1.5081379498     3.9649380470
 Xe    -4.5643653675    -4.9283409460     2.9501587550
          6
Energy: -4.386391496087077 Kcal/mole
 Xe    -1.5090188908    -5.6682784998     5.9083058244
 Xe     1.5424563426    -5.7621220523     2.3939698662
 Xe     4.6214007812    -1.7950628419     3.9826477590
 Xe     3.6347875165    -6.3528665676     6.2284296763
 Xe    -0.0393543037    -2.1286564884     3.4730799712
 Xe     1.4398421196    -2.7058526396     7.0968019539
          6
Energy: -5.261868250831481 Kcal/mole
 Xe     0.8778779451    -5.2653755326     7.2714050804
 Xe     5.0589488655    -6.0827991392     6.1430675107
 Xe     4.4187738935    -3.6932736499     2.7155537112
 Xe     3.4069453239    -1.8046268562     6.3925318417
 Xe     1.5800332984    -6.8709344058     3.4294699553
 Xe     0.4156548146    -2.5627345130     3.3614605939
          6
Energy: -5.3699753130865115 Kcal/mole
 Xe     0.7909861332    -7.2804303758     6.7269599076
 Xe     4.5572627707    -4.9102068814     7.7723708422
 Xe     4.9216579817    -3.8121837067     3.6031062560
 Xe     1.3840529241    -3.0017290759     5.6902924707
 Xe     4.6251602355    -8.0244161569     4.5042379649
 Xe     1.2195368929    -5.9916926618     2.4865726180
          6
Energy: -5.503287602029611 Kcal/mole
 Xe     0.8975922740    -7.1898563853     6.6292456173
 Xe     4.5864942090    -5.0813602065     7.6789032056
 Xe     5.0386598765    -3.7546216526     3.5043227107
 Xe     1.3160826700    -2.9160533355     5.6737534319
 Xe     4.6330519919    -8.0417591994     4.4305671887
 Xe     1.3491459362    -5.9083979042     2.4541580226
