          6
Energy: -5.503287602029611 Kcal/mole
 Xe     0.8975922740    -7.1898563853     6.6292456173
 Xe     4.5864942090    -5.0813602065     7.6789032056
 Xe     5.0386598765    -3.7546216526     3.5043227107
 Xe     1.3160826700    -2.9160533355     5.6737534319
 Xe     4.6330519919    -8.0417591994     4.4305671887
 Xe     1.3491459362    -5.9083979042     2.4541580226
