          6
Energy: -0.876717108162562 Kcal/mole
 Ne     3.7227680828     6.3026920414     2.5300496317
 Ne     3.1234787769     3.2644449200     2.4249615755
 Ne     6.1404413845     2.6270681911     2.8056422124
 Ne     6.7343038490     5.6721756877     2.9065112312
 Ne     4.6639422695     4.4231909666     4.8566631158
 Ne     5.2116406588     4.4853970239     0.4976257027
