          6
Energy: -0.848612785295177 Kcal/mole
 Ne     3.2570616811     0.3372350192     1.6131990529
 Ne     3.3465835217     3.4325195406     1.3707923064
 Ne     1.6129236161     2.1146723651     3.5890476994
 Ne     4.7283315046     2.0421815674     3.7877873351
 Ne     3.0739013240    -0.4372252744     4.6115661797
 Ne     5.9331669818     1.7415598284     0.9201280326
