          6
Energy: -0.039017255003654445 Kcal/mole
 Ne    -7.4436476487    -1.4106872609     0.3686855947
 Ne    -1.6697106977     6.9052181749     0.2108715146
 Ne     0.6003550922     2.0076196823     3.5786692518
 Ne    -4.7152073136    -1.5011293266    -5.2095306037
 Ne    -2.4254495078    -3.7900954735    -3.0703197272
 Ne     7.4154592915     4.0411640764    -3.9495926792
          6
Energy: -0.05904134526688618 Kcal/mole
 Ne    -5.3673799184     1.3297486104     6.9912174173
 Ne    -5.3067522466     7.4924272840     1.2394041317
 Ne    -0.2495198182     0.3495397232     5.7924058435
 Ne    -6.5818507642     3.3814692659    -7.3922834406
 Ne    -0.4932809169    -6.6656934702    -2.8059322181
 Ne    -6.9460716509     4.8543741121     2.9849711128
          6
Energy: -0.0585647807974506 Kcal/mole
 Ne     6.3437336412     3.8726247140    -1.5998396646
 Ne    -4.0903863882    -0.3795583399     3.7933209711
 Ne    -6.8996564564     2.9652071158     4.4028747972
 Ne    -4.5849848375    -6.4403671911     6.5573538200
 Ne    -0.0288652260     5.8726709277    -5.7386713911
 Ne    -7.4128966655     3.1354159894     7.2131563532
          6
Energy: -0.07252648186576911 Kcal/mole
 Ne    -3.4539422506    -2.5870316262     2.7708185523
 Ne    -4.9879134661     6.8002387815     0.6659886502
 Ne    -4.0605709910    -0.2319614701     0.8876606050
 Ne     6.3978530621     0.0578127401     4.1728199469
 Ne     3.3616257889     7.1244195830     1.0573573970
 Ne    -2.3441300882    -3.3592610145    -4.9743450480
          6
Energy: -0.09753499231070713 Kcal/mole
 Ne     6.2866353294     0.4474809748     0.3594728445
 Ne    -4.2514955805     4.5451671585    -0.2974313370
 Ne    -0.7857579905    -3.9667121541     3.0990432259
 Ne    -6.0175816816     4.3787106842    -6.4039045772
 Ne    -7.1387735705     5.9916665215     0.4742709278
 Ne    -5.1543718460     2.6697094967     3.3482680175
          6
Energy: -0.06507747006534269 Kcal/mole
 Ne     4.0575691651    -6.3164494163     6.8512109084
 Ne     1.1547442927     3.9538243022    -6.4627594752
 Ne     6.2797987197    -4.5272557857     5.9982840130
 Ne     4.8047094276     4.2154893104     1.6643050700
 Ne    -1.9980391832     0.5756437577    -0.6074554775
 Ne    -2.3264577197    -2.8176098623    -6.9790498975
          6
Energy: -0.11907923307973879 Kcal/mole
 Ne    -2.4656773457     2.9703194279    -3.9430973210
 Ne     3.7500587586     6.6696039720     3.3769959274
 Ne    -2.1641652065    -5.9927144760    -0.9920150110
 Ne     0.1750914030    -5.4778204254     0.7594496735
 Ne    -6.6967931228     2.3717806325     3.1022345827
 Ne    -1.4522963340    -5.8735837316    -4.4085849262
          6
Energy: -0.5388441527442125 Kcal/mole
 Ne     3.2851495647     4.5336864515     0.4617946410
 Ne     5.6335334249     2.8534243010    -1.0524807435
 Ne     1.7045108023     5.2692921845     4.8576481667
 Ne     5.8989421711     3.9725309214     1.5785791110
 Ne     4.7049156004     3.5826939490     4.5788120181
 Ne     3.9112754754     6.5889022699     3.0843868934
          6
Energy: -0.7429571355745078 Kcal/mole
 Ne     4.0498685287     6.9891287132     2.4552936351
 Ne     2.9042690699     3.3945973930     2.2922427176
 Ne     6.6703907994     2.7948038306     2.7391753564
 Ne     6.9797087312     5.7380611378     2.9776520114
 Ne     4.8221371347     4.3988093856     4.4056062905
 Ne     5.4159072557     4.6945322723     0.4815399469
          6
Energy: -0.876717108162562 Kcal/mole
 Ne     3.7227680828     6.3026920414     2.5300496317
 Ne     3.1234787769     3.2644449200     2.4249615755
 Ne     6.1404413845     2.6270681911     2.8056422124
 Ne     6.7343038490     5.6721756877     2.9065112312
 Ne     4.6639422695     4.4231909666     4.8566631158
 Ne     5.2116406588     4.4853970239     0.4976257027
