          28
Energy: -110.05568751870331 Kcal/mole
 H     -0.7949603362     3.6575409554    -4.1892755877
 F     -1.3126995295     4.3905244279    -4.3778766396
 H      3.2289756644     0.5804569022    -2.5638010238
 F      4.0964713865     0.5555669836    -2.8599777684
 H      2.0494920126     6.0583473657    -4.9515420023
 F      2.6960430058     5.6120758462    -5.4245140354
 H     -0.3053601924     5.7426130295    -4.3510079959
 F      0.3785563583     6.3507456852    -4.2933727211
 H      1.0251835194     0.1122409616    -2.8193273715
 F      1.5667186516     0.5126128125    -2.1969680849
 H      5.7434155319     4.1581922433    -2.4684741706
 F      5.6835517110     5.0686746787    -2.5597268849
 H      3.4865804426     4.2527560349    -4.8804802973
 F      3.7350109522     3.4434178089    -4.5281410888
 H      4.1233559208     5.6673352173    -2.4108822974
 F      3.2433551465     5.9005171328    -2.3008194446
 H      2.2738855607     4.5804991706    -1.9889740455
 F      1.7485494370     3.8293707993    -1.9621948202
 H      1.0022131690     2.9025746140    -3.2142669977
 F      0.5331112024     2.6597209512    -3.9638365031
 H      5.1265762556     1.8029478052    -2.3684885170
 F      5.5662651995     2.4976556801    -1.9623560248
 H      3.3917392903     2.2529934529    -5.6458116844
 F      3.0885851628     1.6106341403    -6.2257781390
 H      1.6346358026     0.7037963652    -6.4157100730
 F      0.8902386567     0.1686547207    -6.3960807690
 H      0.3039394481    -0.2876670899    -4.8508040441
 F      0.0784805171    -0.5646062367    -4.0061964551
          28
Energy: -109.7421982904363 Kcal/mole
 H     -0.3670845183     3.3709093732    -4.2788410975
 F     -0.7474164389     4.1626680631    -4.5421941060
 H      2.5991217900     0.6233862598    -2.1214055543
 F      3.3523061687     0.8900528214    -2.5713958171
 H      2.2817384520     5.6038053203    -6.2640584638
 F      3.0655078693     5.2219258223    -6.5482459892
 H      0.1750754218     5.4328164803    -5.2527552429
 F      0.7554400081     6.0803778475    -5.5438398057
 H      0.4749253627    -0.0056826629    -2.0333039362
 F      1.1337849938     0.2467201547    -1.4475686682
 H      6.1602067321     3.3969236765    -2.4952417905
 F      6.4080082225     4.1828213479    -2.8975454959
 H      3.5319020423     3.9411791275    -5.6965744798
 F      3.6465733754     3.2344358348    -5.1236404491
 H      5.1313709047     5.1542345381    -3.0845999699
 F      4.2979560068     5.5365677338    -3.0732010472
 H      3.1032340492     4.5611486209    -2.5090452543
 F      2.5526581327     3.8734301895    -2.2544897214
 H      1.5384013553     2.7959153057    -3.2139528217
 F      0.9042607519     2.3172237505    -3.6717836750
 H      4.8893053088     1.4472149855    -2.1011243662
 F      5.6363761001     1.9144850782    -1.8472880150
 H      3.0515089588     1.8215905179    -5.6803764284
 F      2.7397462578     1.0621930606    -6.0890431877
 H      1.1512816124     0.4483321412    -5.8528716677
 F      0.3718107595    -0.0081554890    -5.6949690616
 H     -0.2988250435    -0.3431698452    -4.2224325277
 F     -0.4989432756    -0.4364492962    -3.3324096981
          28
Energy: -109.83419183537778 Kcal/mole
 H     -0.1954170334     3.6504855831    -4.8360974721
 F     -0.5813801568     4.2649578546    -5.3967625191
 H      2.6251605075     0.6329934917    -2.4239224083
 F      3.1969050241     1.2919697461    -2.1415264031
 H      2.2531388265     6.1343757848    -5.8110862181
 F      3.0880144629     5.8897665851    -5.5211931151
 H      0.1442902436     5.7060324503    -5.9360863848
 F      0.6916377873     6.3724793230    -6.2477724966
 H      1.1251968851    -0.5552184512    -3.7230383470
 F      1.8712908939    -0.6665866369    -3.2016652970
 H      6.1094276392     3.0661358291    -2.1502406560
 F      6.2680232928     3.9262627033    -1.8747081190
 H      3.7626161741     4.5147794816    -4.7328097814
 F      3.9371130016     3.6652894184    -4.4348056041
 H      5.0874905768     5.0640946087    -2.0559652522
 F      4.3356139635     5.5890094418    -2.0618793366
 H      2.7593075597     5.0564034333    -2.2196024138
 F      1.9487224390     4.6990196685    -2.4564939645
 H      1.4094003947     3.3968446951    -3.2996196533
 F      1.0177966755     2.7532617513    -3.8224356070
 H      4.8718757030     1.3702525301    -2.3631647301
 F      5.7743536784     1.4987488499    -2.4627197389
 H      3.3709200122     2.7104918208    -5.6940936867
 F      2.8884333832     2.3407195785    -6.3806533284
 H      1.4258660551     1.6653356213    -6.5611411900
 F      0.6116894881     1.2464571084    -6.6116021571
 H      0.0106992237     0.2742516738    -5.4362255390
 F     -0.1927197557    -0.2341871896    -4.7006987611
          28
Energy: -109.98708828884403 Kcal/mole
 H     -0.1217231872     3.2690821994    -5.3548507702
 F     -0.5689329274     3.8320043764    -5.9240704738
 H      2.4206574271     1.0733095844    -2.6637871678
 F      3.0460865648     1.7436019327    -2.6429170580
 H      2.2820664791     6.0728707326    -6.3976192622
 F      3.1495382711     5.9751962364    -6.1168321848
 H      0.1528448878     5.2485099709    -6.6459347107
 F      0.6076175106     6.0133082349    -6.8676428003
 H      0.9643601232    -0.5154640530    -3.4849499003
 F      1.4362550793    -0.2615048859    -2.7408337186
 H      5.9302107663     3.0962138333    -1.9400979063
 F      6.1070156781     3.9945905199    -1.9905791127
 H      3.7730543882     4.7411185532    -5.2039966983
 F      3.9480795297     3.9922602030    -4.7045306123
 H      4.7075278882     4.7931451412    -1.7755191427
 F      3.8676961793     5.1345259708    -1.6375668685
 H      2.4648903473     4.7296595533    -2.5162138071
 F      1.6635757935     4.6187371120    -2.9480473373
 H      1.1555692791     3.1360432619    -3.7077071081
 F      0.8269634059     2.4888252199    -4.2680784013
 H      4.6432462006     1.5313686691    -2.1853301666
 F      5.4847571656     1.5736385740    -1.8234440647
 H      3.5273796233     2.6025484714    -5.7156175091
 F      3.2624053507     1.9917576045    -6.3461824557
 H      1.8775356030     1.2360587498    -6.7679871815
 F      1.1024934802     0.7488071536    -6.8207563945
 H      0.4630506405    -0.3112882664    -5.6571734482
 F      0.2321894175    -0.8280001660    -4.9356466584
          28
Energy: -109.43698361464213 Kcal/mole
 H     -0.5635105475     2.5274512628    -4.8379475791
 F     -1.1954607529     3.0335098822    -5.2685664497
 H      2.4494838719     0.4348898497    -1.7692236119
 F      2.6740046876     1.3168173195    -1.6566032708
 H      1.4040549539     4.4561689502    -6.8223153231
 F      2.2068848188     4.0204947588    -6.9031930507
 H     -0.5758033738     4.4843977724    -5.8948894102
 F     -0.0196741239     5.0821262996    -6.3124176909
 H      1.3096829138    -1.2086673110    -2.6196069654
 F      1.9349865183    -1.0406665792    -1.9702533203
 H      5.4983621071     3.2011508823    -2.1925912379
 F      5.4245355916     4.0957036238    -2.3802452767
 H      2.9335566578     3.8997710684    -5.4412657360
 F      3.3073457918     3.5860755161    -4.6648858137
 H      3.9720106318     4.8487822202    -2.1458455201
 F      3.1874614677     5.2278430049    -1.8600404632
 H      1.6759043662     4.5745685117    -2.1695423831
 F      0.9426815446     4.0619386596    -2.3707485671
 H      0.9667217401     2.5775365926    -3.2823807771
 F      0.7958523640     2.0413397988    -4.0063874447
 H      4.3763354520     1.5594877386    -1.6922420522
 F      5.2855039644     1.6571600361    -1.7612474029
 H      3.4364039055     1.9618596292    -4.7122826510
 F      3.4568114225     1.0601001683    -4.8775170539
 H      2.2830755008     0.2215068689    -5.5688679273
 F      1.5508937471    -0.2317703158    -5.8840483097
 H      0.6819905688    -0.9873637161    -4.6546312596
 F      0.3259441087    -1.3613128828    -3.8968173385
          28
Energy: -109.96530619064863 Kcal/mole
 H     -0.8632144110     2.2248124393    -4.7638344052
 F     -1.3646137525     2.5884533020    -5.4400392731
 H      2.0029999387     0.5011139194    -1.4938207334
 F      2.6874238213     1.0385297165    -1.7830217188
 H      0.9554852420     5.0596211438    -6.4274341833
 F      1.8564193314     5.0353382738    -6.2582682621
 H     -1.0179095727     4.1088857399    -6.1826868632
 F     -0.6405944633     4.8819932569    -6.5002196572
 H      0.4853179074    -0.9257002284    -1.9701473517
 F      0.6904332536    -0.4451603841    -1.2165571761
 H      5.2453673753     3.3261992295    -2.4990697970
 F      4.9845387636     4.1759400125    -2.7244539957
 H      2.3778834127     3.9865876848    -5.0533892148
 F      2.6270954144     3.3893146646    -4.4037375254
 H      3.5797415031     4.3299749716    -1.9131911526
 F      2.8282815931     4.3398520273    -1.3877394922
 H      1.2732861511     3.8632680389    -1.7685662510
 F      0.4230210205     3.5728028971    -1.9517825413
 H      0.2953607454     2.3752801187    -3.0161803030
 F      0.1899824045     1.7288395611    -3.6579738919
 H      4.3994930757     1.4414732823    -1.7101681230
 F      5.2298740273     1.8208581750    -1.7963283140
 H      2.9177343848     1.8310788058    -4.8259811754
 F      3.1649724784     0.9768590685    -5.0497466005
 H      2.4039525907    -0.5238943817    -5.1373170467
 F      1.9629231051    -1.3277375766    -5.1520856217
 H      0.8434935473    -1.7803171419    -4.0479932752
 F      0.2545311627    -1.9602788824    -3.3685625713
          28
Energy: -109.9415459439774 Kcal/mole
 H     -1.5854728789     2.0263807397    -3.8280483731
 F     -2.3157913549     2.4229737455    -4.2156537283
 H      1.3222994380     1.1245863244    -0.7572857180
 F      1.8673539870     1.8141338626    -1.0186833674
 H      0.0726866657     4.0387583234    -6.1986210968
 F      0.8333186577     3.5675601940    -6.3993704322
 H     -1.8422331034     3.8055676018    -5.1030261786
 F     -1.3808910197     4.4726650091    -5.5308503608
 H      0.0861099003    -0.6036904561    -1.2803908079
 F      0.4515788086    -0.1930957087    -0.5464061824
 H      4.8475982602     3.0053772500    -2.1337872982
 F      4.9300099297     3.8405238833    -2.5034187601
 H      1.9079537846     3.1834958410    -5.1723971419
 F      2.4372878666     2.8821644882    -4.4869091073
 H      3.6590330992     4.5088081061    -1.7640519677
 F      2.8512461678     4.7057554035    -1.3772948922
 H      1.2755928880     4.3297541358    -2.0104354609
 F      0.5133382671     4.0812120319    -2.4555014284
 H      0.1687243004     2.5509137694    -2.7949888938
 F     -0.1158198557     1.7335200274    -3.0979593442
 H      3.4764682374     1.6028535796    -1.2963989185
 F      4.3700176499     1.5825351246    -1.5014491757
 H      3.0481878982     1.3796139625    -4.6691223789
 F      3.2082232852     0.4792617859    -4.7372665864
 H      1.8826294767    -0.4746086298    -4.8911195110
 F      1.0493357937    -0.8565651421    -4.9160165096
 H      0.0541502517    -1.1492383493    -3.5796850137
 F     -0.4067395985    -1.2703458077    -2.7962295079
          28
Energy: -109.72705969594821 Kcal/mole
 H     -1.6781294713     1.8321150893    -3.4704607825
 F     -2.2629657830     2.0478524575    -4.1430028827
 H      2.3116409287     0.0089710071    -1.4788759654
 F      2.6316236412     0.8359600786    -1.7125191535
 H      0.1059052339     4.5063461760    -5.4256429467
 F      0.9105545974     4.8671146164    -5.1740986481
 H     -1.8472832819     3.2249056494    -5.2676365072
 F     -1.3530837273     3.7719904878    -5.8129382400
 H      0.8138303953    -1.7195877119    -1.7747508543
 F      1.4661348782    -1.4707739140    -1.1802093877
 H      4.3111136890     4.0015806458    -1.9271649803
 F      4.1589836765     4.9058483112    -1.9339065447
 H      1.7610673541     3.9962163651    -4.0152908661
 F      1.9913499223     3.3169129422    -3.4439715172
 H      2.6414532110     5.4355673366    -1.7009762696
 F      1.7503744548     5.5686701040    -1.5302387414
 H      0.6481126968     4.4541422940    -1.0535151636
 F      0.1512227612     3.7182747956    -0.8244116569
 H     -0.2576159597     2.3906216050    -1.7428458698
 F     -0.5100321406     1.6852140322    -2.2715946077
 H      4.0116026124     1.7820908131    -1.7848807656
 F      4.6694975813     2.4162810764    -1.8614700580
 H      2.2774572348     1.9418319090    -4.2650536266
 F      2.3191889431     1.2359436264    -4.8488936705
 H      0.9319672374     0.4107043460    -4.9417999419
 F      0.1564116683    -0.0746774449    -4.8800984322
 H     -0.0801899585    -1.4483370301    -3.8850463083
 F     -0.0898185242    -2.0034915624    -3.1552519975
          28
Energy: -110.36211185004112 Kcal/mole
 H     -1.5410420897     1.2972089894    -3.6324565201
 F     -2.1862363910     1.4413254837    -4.2679435378
 H      2.4966497549     1.1920738402    -1.2239218355
 F      2.6292881792     2.0958003267    -1.3050050393
 H     -0.7377005601     3.9376649642    -5.9984776568
 F      0.1085856840     4.2379462347    -5.8126827389
 H     -2.3136460952     2.4931700005    -5.5951938698
 F     -2.1752919015     3.1636367156    -6.2052934526
 H      1.6451594824    -0.7755398521    -1.6909229140
 F      2.2659996164    -0.3823791797    -1.1424056274
 H      4.7603101010     4.4789415837    -2.2691861132
 F      4.4074990361     5.3017875828    -2.4675237401
 H      1.2770481541     3.8421918282    -4.7119992193
 F      1.9036213568     3.4757273865    -4.1516432301
 H      2.8662935978     5.3475662461    -1.7439340211
 F      2.0585149346     5.2456649967    -1.3220350205
 H      0.7577947652     4.2201284477    -1.5986030062
 F     -0.0329988880     3.7677891670    -1.7031189054
 H      0.0091334707     2.2244239930    -2.3018691120
 F     -0.1023198752     1.3746781803    -2.6280580228
 H      4.1952661060     2.4967016474    -1.5085194004
 F      4.9915530264     2.9303785402    -1.6454153209
 H      2.5295699822     2.0163619880    -4.3668027335
 F      2.8121782220     1.1440609665    -4.3561956258
 H      1.5113499266     0.1150112562    -4.9169825358
 F      0.7941443845    -0.4464522517    -5.0231142455
 H      0.5269996757    -1.2591475640    -3.6045349696
 F      0.5756064374    -1.5716180408    -2.7437861189
          28
Energy: -108.95229669759297 Kcal/mole
 H     -1.8028500248     1.9854855672    -3.7340265373
 F     -2.6014331074     2.1210959933    -4.1638682205
 H      2.8589522600     0.8015695272    -1.0726567436
 F      3.0848835159     1.5660381408    -1.5259026001
 H     -0.6553993573     3.7012519588    -6.6180506687
 F      0.2339846780     3.8817610209    -6.4865154407
 H     -2.4752786341     2.7022073575    -5.6863065665
 F     -2.1921865028     3.0231113655    -6.4973358279
 H      1.5248674229    -1.0333696141    -1.0831729899
 F      2.2134750748    -0.6808435102    -0.5907972717
 H      4.8541001716     4.5182814566    -2.6039068324
 F      4.5876835124     5.3312464764    -2.9340568593
 H      1.3226264012     3.5544800991    -5.1961280557
 F      1.8925986758     3.4437521381    -4.4863675856
 H      2.9762778179     5.8036702381    -2.6143871147
 F      2.0818797012     5.8886286156    -2.4307486574
 H      1.0677184243     4.6723326072    -2.0891254245
 F      0.5831926762     3.9702691137    -1.7526278011
 H      0.0718857121     2.5980513330    -2.6042924822
 F     -0.1879147772     1.9217595925    -3.1664509896
 H      4.5169198332     2.3826952898    -1.7756936439
 F      5.1494042296     3.0257227617    -1.9411268896
 H      2.7155034528     2.0807205638    -4.6854154995
 F      3.0546693701     1.2509617428    -4.8786919325
 H      2.0697130345    -0.1835242317    -4.8117179251
 F      1.5019535648    -0.8874873010    -4.6601455608
 H      0.7825030888    -1.2574031567    -3.1978003401
 F      0.4088157117    -1.4268598879    -2.3777203681
          28
Energy: -109.52903427605965 Kcal/mole
 H     -1.8433965342     1.2877341878    -3.9547040804
 F     -2.3888360784     1.2587507027    -4.6912803909
 H      2.7536369907     0.8999333926    -1.6428563641
 F      2.7074225912     1.7416074107    -2.0038800152
 H     -0.1489350144     3.0673838663    -7.0885376400
 F      0.5905204374     3.6090274223    -7.0617627815
 H     -1.7757111461     1.6003921686    -6.1853150108
 F     -1.2491970721     1.8400465936    -6.8968188313
 H      1.9296233360    -1.1705121817    -1.2760897998
 F      2.7329318718    -0.7285305918    -1.2607056970
 H      4.6321413143     4.1176680965    -3.9990984859
 F      4.1536441057     4.8168579559    -4.3499017951
 H      1.3803571395     3.2165911040    -5.5330590347
 F      1.6615469996     2.9612464388    -4.6984211704
 H      2.7242619343     5.1527170001    -3.4487568340
 F      1.9797304494     5.3306660602    -2.9438845730
 H      0.6739416596     4.4166395617    -2.5687343580
 F     -0.0559468623     3.8945611401    -2.3800921906
 H     -0.3341197131     2.3151998443    -2.5879064203
 F     -0.5638976344     1.4654459963    -2.8448295699
 H      4.1884481590     2.4095526935    -2.5393173172
 F      4.9448735833     2.7838083331    -2.8979847032
 H      1.7728599912     1.3153157428    -4.6653514832
 F      1.7813102454     0.3994864295    -4.7108955507
 H      0.5163145693    -0.5156101096    -4.2398551979
 F     -0.1014233969    -1.1382811077    -3.9723301838
 H      0.1515013495    -1.7344804814    -2.4150172200
 F      0.5248767752    -1.9061669339    -1.5952589913
          28
Energy: -110.70069156480167 Kcal/mole
 H     -1.6305285194     1.8493664397    -4.1307793885
 F     -2.1269910244     1.8119630626    -4.9008540397
 H      1.5137592774     1.9724826373    -0.7851581111
 F      1.8618512627     2.7593816404    -1.1021926970
 H      0.6649399202     2.6977704145    -6.8604975035
 F      1.2622796125     3.3443588398    -6.6035973278
 H     -1.1063165603     1.5052258348    -6.2252494080
 F     -0.4531122950     1.4356358507    -6.8650700249
 H      0.5741538615    -0.1841474607    -0.5937608109
 F      1.1548576141     0.4324250623    -0.2423202390
 H      4.0725722593     4.6126883885    -2.8949847675
 F      3.8752092562     5.3383366723    -3.4197432007
 H      1.7873156100     3.2204184112    -5.0765537833
 F      2.0567562974     3.0668934874    -4.2135817016
 H      2.2402933354     5.8117595159    -3.5920064266
 F      1.3474356212     6.0164199104    -3.6345296568
 H      0.2016232370     5.1323139642    -2.7498675604
 F     -0.4503012970     4.6081347072    -2.3742087946
 H     -0.4959239672     2.9742066950    -2.7132301304
 F     -0.6036305797     2.0733098229    -2.8461703860
 H      3.4223201106     3.2005360612    -1.4162380950
 F      4.2286016487     3.4458772572    -1.7776336938
 H      2.0907518931     1.4343261685    -3.7745905504
 F      2.1529309784     0.5194928779    -3.7847301654
 H      0.7668155870    -0.4474364302    -3.9659093860
 F     -0.0800707069    -0.7840300081    -3.8640400161
 H     -0.4964145198    -1.0286062492    -2.2630106860
 F     -0.5400641332    -1.1473493612    -1.3547795565
          28
Energy: -110.49280622820906 Kcal/mole
 H     -1.1000365629     1.4136851973    -4.5301275809
 F     -1.4490843929     1.3010094512    -5.3705791195
 H      1.4422750655     1.7915748175    -0.5086536718
 F      2.0654783191     2.1783157308    -1.0590518647
 H      1.8281728835     2.8000816662    -6.6917650964
 F      2.4270611682     3.3807899803    -6.3109768661
 H     -0.2870522733     1.5053419135    -6.5476911387
 F      0.4340285820     1.7504280911    -7.0584397713
 H      0.0380362264     0.2728835540     0.1021764531
 F      0.3185948625     1.0368834803     0.5246453445
 H      3.6689604250     5.4221912107    -2.1224448595
 F      3.5333494908     6.0215457023    -2.8030863716
 H      2.6838804859     3.3259653107    -4.7096078358
 F      2.7068742102     3.1358675837    -3.8128229436
 H      2.1180957627     5.9805494723    -3.6165259490
 F      1.3343919611     5.7694828386    -4.0433142191
 H      0.5303940371     4.7640326431    -2.9776964120
 F      0.1482840739     4.2180643971    -2.3477760596
 H     -0.0660920980     2.6285908200    -2.8398851617
 F     -0.1203065077     1.7847838803    -3.1947649248
 H      2.9453411464     3.5844918780    -0.9771794507
 F      3.4074343718     4.3719479744    -0.8919049106
 H      2.8997097419     1.4998415245    -3.5894489936
 F      2.8945911438     0.5837832527    -3.6306805681
 H      1.6539398683    -0.5977809895    -3.3084741112
 F      0.9702150616    -1.1823738083    -3.1305397836
 H      0.1749467233    -1.2159297486    -1.6118034869
 F     -0.2376433657    -1.0599393847    -0.8078598167
          28
Energy: -110.6255713299648 Kcal/mole
 H     -0.4746012404     0.9461221335    -5.0172696672
 F     -0.5657717331     0.8627581861    -5.9259100765
 H      2.1512994248     1.7069107409    -0.7301728105
 F      2.8041383724     1.6242119157    -1.3688051091
 H      2.6907169732     1.8474877018    -7.0784017576
 F      3.2035712001     2.4892167899    -6.6709053533
 H      0.7647796838     0.5794095349    -6.9607157665
 F      1.5773854203     0.6452004492    -7.3805162818
 H      0.4575436565     0.9742315403     0.1749327352
 F      0.9243758163     1.7576995714     0.2705077255
 H      3.8252191201     4.7051487448    -3.0590115009
 F      3.6194813433     5.2404571177    -3.7745573856
 H      2.9391843842     2.5529604065    -5.0128435849
 F      2.6921201102     2.4393735634    -4.1370888969
 H      2.0203845866     5.3316576236    -3.9101064602
 F      1.1092974240     5.2592060868    -3.8355413411
 H      0.5219492069     4.1617733728    -2.7665735678
 F      0.3438512223     3.4324474215    -2.2400246484
 H      0.2135788782     2.0256846478    -2.9635738797
 F      0.0660689011     1.2158561577    -3.3676872590
 H      3.5982867619     3.0965596639    -1.4891089105
 F      3.9781761797     3.9152488852    -1.6513463574
 H      2.5207552636     0.6755883656    -3.8821005533
 F      2.6005188328    -0.2378662433    -3.8933899527
 H      1.8782428231    -1.2054955708    -2.7136381045
 F      1.4333268095    -1.6265333482    -2.0312409101
 H      0.3592937021    -0.9608785691    -0.8813952786
 F     -0.0876550748    -0.5476375618    -0.1955690173
          28
Energy: -110.64308836724038 Kcal/mole
 H     -0.3755869790     1.4163345103    -4.3427647950
 F     -0.4397780537     1.4510452347    -5.2568565144
 H      2.5209135745     0.8495624600    -0.3934405882
 F      3.0222574130     0.9717379372    -1.1514752235
 H      2.8943965153     2.0823405939    -6.6707543283
 F      3.5489879533     2.3837246366    -6.1036858068
 H      0.6326542442     1.4658823522    -6.5940063207
 F      1.2949315774     1.5300507499    -7.2250056476
 H      0.7180092668     0.1709871024     0.5655901350
 F      1.4104071555     0.7313020689     0.7835839472
 H      4.4218066154     4.1489620705    -2.4764002084
 F      4.2215130044     4.9037757784    -2.9570536550
 H      2.9474699099     2.3579968020    -4.6168402384
 F      2.5836070988     2.2866930214    -3.7781456422
 H      2.6424061443     5.1870295848    -3.1822797286
 F      1.7297441685     5.2761074048    -3.1807764168
 H      0.9256242572     4.1665584089    -2.2834011519
 F      0.5542182187     3.6010178334    -1.6644420158
 H      0.0746958296     2.0881903883    -2.1812123854
 F     -0.0673049723     1.3125369427    -2.6492791589
 H      4.1052599280     2.2110752484    -1.3231013662
 F      4.7287603788     2.8705390383    -1.4544166264
 H      2.2268680815     0.6406199257    -3.5408431880
 F      2.0729171015    -0.2169306868    -3.8268415146
 H      1.1367594661    -1.2477856651    -2.8327182764
 F      0.6196418015    -1.6683285893    -2.2029389738
 H     -0.1058495894    -1.1903313487    -0.7989694789
 F     -0.3758265533    -0.8628167042     0.0138869639
          28
Energy: -110.84382829257285 Kcal/mole
 H     -0.1293347327     0.8380527779    -4.1055791711
 F     -0.4974945091     1.0845900894    -4.9084283058
 H      2.4394800143     1.0270552738    -0.0700644471
 F      3.1047664117     1.2603599845    -0.6564533296
 H      2.2688833203     3.1772402782    -6.2849958504
 F      3.1084647314     3.1759808145    -5.9162269962
 H      0.0978626313     2.3195748825    -5.8786821726
 F      0.5343684947     3.0009859464    -6.3099948125
 H      0.8940747226    -0.1952698410     0.5734061703
 F      1.3141724034     0.5462939274     0.9117700513
 H      4.2990641937     4.6444075700    -2.2096479330
 F      4.1428590824     5.0620813415    -3.0109204109
 H      3.1526537421     2.4824379792    -4.4758419904
 F      3.0637847446     2.0905610274    -3.6515703386
 H      2.5393035214     5.0312195126    -3.3155811015
 F      1.6523024601     4.8308338840    -3.4337492745
 H      1.1536577158     3.7267885833    -2.3255646465
 F      0.9113268943     3.1435112389    -1.6607697063
 H      0.7699657382     1.5473181082    -2.1905474957
 F      0.6188130473     0.7501273289    -2.6177813022
 H      3.8845035335     2.7638639890    -0.7496997017
 F      4.2468439335     3.6062248589    -0.7445422362
 H      3.1081547645     0.3961957418    -3.5706187980
 F      3.0958782907    -0.5163629179    -3.6599215454
 H      2.7742447408    -1.5788252525    -2.4211794266
 F      2.5510542782    -2.1703200377    -1.7569438234
 H      1.1582640854    -1.8629864416    -0.7688446219
 F      0.4674864484    -1.5779661833    -0.2373573609
          28
Energy: -111.50000727837016 Kcal/mole
 H      0.3830687107     0.6469158572    -4.1321390394
 F      0.0452338202     0.8097195734    -4.9689493744
 H      3.1794649728     0.6852002659    -0.2033030977
 F      3.9872047632     0.7831674885    -0.6262071699
 H      2.8303434507     2.8804333235    -6.0394010470
 F      3.6932016182     2.8324586957    -5.7327037728
 H      0.7589907408     1.9176524098    -5.9942141253
 F      1.2440397920     2.5709771549    -6.4170417442
 H      1.1153493768    -0.2873676897     0.1387666857
 F      1.6392569650     0.4266466831     0.3766601797
 H      4.7451690113     4.4060964510    -1.6055527271
 F      4.4740743568     5.0775876532    -2.1681327245
 H      3.7653389459     2.2403669675    -4.2193744312
 F      3.7359412866     1.8871729274    -3.3736328940
 H      3.1132003306     4.8180077655    -2.9975566331
 F      2.3242958411     4.6082104880    -3.4152931635
 H      1.3853330214     3.7038979988    -2.2921961667
 F      1.0673937976     3.0721220496    -1.7085329077
 H      1.0239973240     1.5140244570    -2.1790640481
 F      1.0224099991     0.6887423024    -2.5788087738
 H      4.7934380690     2.2780591407    -0.5965139959
 F      5.0878464489     3.1460048337    -0.5667990190
 H      3.7307632307     0.1546722512    -3.2808961121
 F      3.6783042472    -0.7576745507    -3.3567932012
 H      2.7971939243    -1.8968217865    -2.6220639287
 F      2.2611785115    -2.4506817934    -2.1252585645
 H      0.9935120621    -2.0122423660    -1.0619841759
 F      0.3848321890    -1.6240363409    -0.4965693776
          28
Energy: -111.36811972531129 Kcal/mole
 H      0.4698177708     0.5957768344    -4.4548141827
 F      0.1946218983     0.6505204444    -5.3278315760
 H      3.2637164616     0.7739972116    -0.6150955482
 F      3.9986060718     0.8323639169    -1.1604574358
 H      2.8474292291     2.5150976891    -6.7314231998
 F      3.4642837844     2.9894376954    -6.2462623852
 H      1.0989364148     1.2416318459    -6.6355527864
 F      1.5993411603     1.6591911124    -7.2806328974
 H      1.5267365354    -0.2461726848     0.1713775166
 F      2.0044119438     0.5089155743     0.3776708155
 H      5.3563806251     4.1763486497    -2.2395968328
 F      5.0992850237     4.8393796354    -2.8185448129
 H      3.5742391344     2.4064566935    -4.7503694291
 F      3.4748259067     2.0397784031    -3.9157718964
 H      3.4942577091     4.9157054284    -3.0991825044
 F      2.5825998897     4.8945879997    -3.1957385738
 H      1.6837149826     3.7243165425    -2.3649524760
 F      1.2840789681     3.0803974510    -1.8486693565
 H      1.1302414758     1.5754256998    -2.4242771896
 F      1.0805440613     0.7590581023    -2.8389615428
 H      4.9811418920     2.1709206853    -1.1262179945
 F      5.4937675435     2.9298042591    -1.0793174323
 H      3.6182130544     0.3504260530    -3.9097725945
 F      3.5891919558    -0.5543072289    -4.0564166000
 H      2.9556967890    -1.5704987105    -2.8882167421
 F      2.5773611063    -2.0969292153    -2.2396629395
 H      1.2592453184    -1.8542678336    -1.1974846667
 F      0.7453567570    -1.5631253480    -0.4960264716
          28
Energy: -110.68493316357612 Kcal/mole
 H      0.1980004979     0.4767563096    -4.4381379986
 F     -0.0736300397     0.4982203223    -5.3137207457
 H      3.1819851848     0.4762582377    -0.2889699975
 F      3.6156881505     0.9065268629    -0.9728264502
 H      2.5284228344     2.5148260345    -6.4835431950
 F      3.2685471045     2.8293796551    -6.0429060604
 H      0.7247104858     1.2746300729    -6.4825321741
 F      1.2353707331     1.7361617187    -7.0884229661
 H      1.6095189826    -0.7722752351     0.2946310042
 F      2.1328157024    -0.2057292621     0.7906906817
 H      4.6809021314     4.3626087179    -2.0245443329
 F      4.5355407321     5.0106740069    -2.6568183596
 H      3.6315933124     2.4366237219    -4.4574301802
 F      3.6822231128     2.0885638093    -3.6105654209
 H      2.8908074443     4.8937545067    -3.0666776959
 F      1.9950964309     4.6990176475    -3.0925298937
 H      1.5754901140     3.4865671841    -2.0266962219
 F      1.3028454713     2.7394638932    -1.5701980604
 H      1.0900129519     1.4233041211    -2.4727778753
 F      1.0115515833     0.6696164126    -2.9891959732
 H      4.1360125729     2.5142331041    -0.7301382865
 F      4.4748848691     3.3663211586    -0.7308553803
 H      3.9010958285     0.4035059346    -3.6186721690