          2
Energy: -0.43299999988680093 Kcal/mole
 Xe     0.6505437955     0.8059911806     1.7955509941
 Xe     3.2783202210    -1.3472274830     4.6181956048
