          2
Energy: -0.4329999998474408 Kcal/mole
 Xe    -5.2847275200     3.2935476187     7.4444080647
 Xe    -3.8795696621     6.0493783012     4.2916482464
