          2
Energy: -0.4329999998282322 Kcal/mole
 Xe     4.0760158019     6.1160886322     1.2101408695
 Xe     4.5029761950     5.5098215799    -3.1440488549
