          2
Energy: -0.009403468538527799 Kcal/mole
 Xe     0.6866696301     1.1814105694    -4.4747808954
 Xe    -4.9879651444     3.2035593747     2.7119333544
