          2
Energy: -0.43299999951889223 Kcal/mole
 Xe    -0.0920535039    -2.3762470771    -2.0368154053
 Xe     0.7234718080    -1.5093907689    -6.2903068109
