          2
Energy: -0.3241638274394746 Kcal/mole
 Xe    -2.4537957717     2.1614179047     4.5450107296
 Xe     2.3829106481     3.2376349828     4.3216365130
          2
Energy: -0.003359068324292504 Kcal/mole
 Xe    -0.5202556666     5.3945372101    -4.2980845744
 Xe    -2.1243112525    -5.5444860938    -2.9381996937
          2
Energy: -0.3550301336732342 Kcal/mole
 Xe    -5.4736765381    -2.5066727653     0.6176288467
 Xe    -7.0669750814    -3.8464801953     4.2239374652
          2
Energy: -0.37573978107416917 Kcal/mole
 Xe     0.5570823811     7.2315013477    -2.4520039647
 Xe    -3.0526203714     7.2614966999    -5.5585149575
          2
Energy: -0.43217755596231106 Kcal/mole
 Xe    -3.9681607611     4.3226243723    -1.0716959204
 Xe    -6.8775929579     2.2569557340    -3.6215331534
          2
Energy: -0.4328206745058047 Kcal/mole
 Xe     2.2851449861     2.9499360175    -1.2729978008
 Xe    -0.4959181678     6.2560586287    -2.1177287325
          2
Energy: -0.43038492100228304 Kcal/mole
 Xe    -3.4457970053     0.2966233970     3.3297074043
 Xe    -2.4806696983    -1.2160424402    -0.7718189422
          2
Energy: -0.43297192160854164 Kcal/mole
 Xe     4.0449246458     0.1375858929     5.8777433762
 Xe     0.1570839884    -1.9374112141     6.0672057981
          2
Energy: -0.4048574789938888 Kcal/mole
 Xe     2.4640183606     0.7074328861     0.6220346953
 Xe     2.7486275408    -1.0957060335     4.8866989180
          2
Energy: -0.43299999988680093 Kcal/mole
 Xe     0.6505437955     0.8059911806     1.7955509941
 Xe     3.2783202210    -1.3472274830     4.6181956048
