          5
Energy: -4.491062806034403E-4 Kcal/mole
 He    -2.1029670402     2.4559766200    -2.8931560788
 He     2.7506681470    -6.1365356115    -3.7630644468
 He     4.1674287723    -2.3125375429     2.1522836789
 He     5.7501121812     4.7048962737     1.1207590085
 He    -4.8583298151    -6.9947337593     4.7868016437
          5
Energy: -0.021629341957565704 Kcal/mole
 He     0.3487338519     0.8723231901    -6.9318936529
 He    -2.9767287778    -3.3368133841    -3.0417773424
 He     1.2086389170    -0.7097385068    -4.8478224844
 He     6.7881418702    -6.0595435947    -3.5415021898
 He    -7.4444471708    -3.1760583143    -1.1737426789
          5
Energy: -5.350302360441163E-4 Kcal/mole
 He    -6.4214750190     5.9199749210     0.4203284632
 He    -0.5306633597     3.4647186470     7.2852145651
 He     2.7765654063     1.6267767090    -0.6837053112
 He     6.7397958726     4.0649022822     4.2862594773
 He    -4.4950342029    -2.9537205616     0.6011995958
          5
Energy: -3.7827528445663676E-4 Kcal/mole
 He     0.9280361542     0.1642568105     7.2045556395
 He    -7.1750317638     0.6440948535    -0.8286239115
 He     4.4696035787    -4.6740154978    -7.3812849240
 He     7.0188629245    -4.2947039270     2.1559518606
 He    -1.7598578227    -6.3306937298    -5.9904968672
          5
Energy: -7.937153710825548E-4 Kcal/mole
 He    -1.7951533930    -0.0985102851     4.4219663506
 He    -0.9019485442    -6.9413114753     4.6644980591
 He     3.5306597681     5.7987781707     7.3096500219
 He     4.8146644381     1.6797238338     2.5461577506
 He    -1.6929654168     4.3507342366    -6.8621302581
          5
Energy: -0.0016794850208249727 Kcal/mole
 He    -5.3020057502    -0.4131325390     0.3145501816
 He     5.5579167728    -3.7908004940    -2.3626564451
 He    -7.2616762662    -6.9446158409    -5.5308621180
 He    -0.9213103729     0.4993913603    -1.8248997606
 He    -1.7392741136    -7.0303291295     7.1840830555
          5
Energy: -8.238549543472402E-4 Kcal/mole
 He     3.0245057053    -0.9065747570     1.6867921771
 He     7.2333802537     6.2325972939    -6.4829242415
 He     1.4541872875    -5.6550318530    -2.5767115908
 He    -5.1700964969    -1.2287300982     3.1164514948
 He     0.3016815157    -2.7001485076     7.4742123319
          5
Energy: -4.202945817782426E-4 Kcal/mole
 He     5.3192816956    -2.1958159498    -1.1645622166
 He     0.5918534726    -2.8181992163    -7.1435395748
 He     6.1025593286     3.4286320891     2.9804698813
 He    -2.6626793791     6.1603406204     5.2526850792
 He    -1.8594539120    -3.2602651633     4.9754460492
          5
Energy: -0.017487809353039743 Kcal/mole
 He     3.7665773568     3.9030836156     0.2921736799
 He     0.3866654401     1.4011010471    -6.2668437101
 He     0.9494526492    -1.2534233443     0.1736274528
 He     1.8663355388     4.8349762742     5.8067880940
 He     2.9428103700     6.6785656360     1.9220529985
          5
Energy: -0.18204995053280293 Kcal/mole
 He     2.4336619480     3.6871404579     2.1653172189
 He     1.2619798043     4.6052416718    -0.3005663784
 He     0.3568112908     2.1692763163     0.8820128176
 He    -0.2641927660     4.6704022142     2.1266695834
 He     1.9258223116     6.4787909525     1.7558752842
