          5
Energy: -0.005531922924992802 Kcal/mole
 He     4.5594664424     5.2305833964    -1.0240050864
 He     4.7187743945    -4.5769758233     6.6958045992
 He     4.0123581715     1.2873671287     0.8182374752
 He     6.4109458258     3.6188581554    -0.5943235296
 He     5.8750056038     1.4087839546    -3.7381351023
          5
Energy: -0.0018866587645286043 Kcal/mole
 He    -7.4304945577    -3.3780396082    -5.7180767015
 He     4.6053114043    -4.1639893659     5.6271664124
 He    -5.4556919422    -3.5816984387     6.0252714304
 He    -4.8074473959     2.1095171083     4.1905351474
 He     1.1355250531    -3.3670653151     1.9223768838
          5
Energy: -0.0012545006820268135 Kcal/mole
 He    -5.0644484519    -5.0178848731    -0.2036732456
 He     2.9326201248     6.2073711454    -4.0003086709
 He     7.3905838764     1.0023286301    -6.7772812787
 He    -6.7746578532    -7.3926829716     4.1911952373
 He    -2.9002265219    -0.4053774865    -7.4687201185
          5
Energy: -0.005732768684471258 Kcal/mole
 He     2.4529635122    -1.5185925783     3.8683175369
 He    -0.2377035766    -5.0907327887     4.4090731238
 He    -4.6744953298     6.6365778453     6.7003282784
 He    -6.6172102963     3.7702112047     3.2544692278
 He     4.2219615472     1.8463854790     0.6548415287
          5
Energy: -0.022404071083506893 Kcal/mole
 He     1.0603159394    -6.3983639271     2.6288786276
 He    -6.5123693508    -4.0761133796     4.5458968501
 He     2.6057391735     5.7443023851     2.2403968914
 He     3.5189434756    -5.5166951102     1.6171385739
 He     6.6283989105     7.0750551389     0.8736906697
          5
Energy: -0.0019042557865086923 Kcal/mole
 He     3.6740641264     4.3131953140     3.5095382949
 He    -4.4455155764    -3.3829606295    -0.9879001692
 He     5.4702175456    -3.9040458868     5.7414918903
 He     3.9623305126     6.8993510428    -3.9140257091
 He    -0.7647072111    -0.9012907365     1.1910564654
          5
Energy: -0.01356392655669082 Kcal/mole
 He     3.5785259992     3.2662577743    -6.6962590355
 He     1.3948234652    -2.5077495440    -4.2602503217
 He     0.6823227168    -1.0322406558    -2.2130753616
 He     0.6442848731    -5.8501546876    -0.7513668869
 He    -1.1215055173     4.2880845117     0.9893958775
          5
Energy: -0.01024385930594953 Kcal/mole
 He    -1.7806567193     3.4525333050    -6.7027173827
 He    -1.1760462766    -0.9850300471     4.1940251013
 He    -3.3278295381     1.6620887269     6.7156772922
 He    -7.1985678636    -6.0705885949     3.6444789547
 He    -3.4586514631    -3.6905285619     2.0732581410
          5
Energy: -0.017184324548165764 Kcal/mole
 He    -3.3564051844     4.4511196781     0.2895619518
 He    -4.3417065077     3.5263337480     2.5957529827
 He    -6.9583043531    -2.3599442205    -5.3247443471
 He     7.1094242415    -2.1088597958     3.8562901375
 He    -7.2575774678    -5.2666202876    -1.9389529179
          5
Energy: -0.18201018765675783 Kcal/mole
 He    -1.6714479865     1.7576019005     0.7401884624
 He    -3.3969222217     1.6559232489     3.0209637591
 He    -4.5137046053     1.6526904559     0.3716876603
 He    -0.9603717628     0.1408219351     2.9995079293
 He    -3.1340459663    -0.6522859133     1.3390190772
