          5
Energy: -0.18201018765675783 Kcal/mole
 He    -1.6714479865     1.7576019005     0.7401884624
 He    -3.3969222217     1.6559232489     3.0209637591
 He    -4.5137046053     1.6526904559     0.3716876603
 He    -0.9603717628     0.1408219351     2.9995079293
 He    -3.1340459663    -0.6522859133     1.3390190772
