          28
Energy: -112.60824348322086 Kcal/mole
 H      1.8326691456     1.8806782381    -1.3151774698
 F      1.4036971039     1.0747053861    -1.2298560231
 H      5.5627217814     0.9742746262     0.4882287397
 F      6.4129896737     0.7853452747     0.7750025380
 H     -0.2684579408     3.3223727756     0.7761968924
 F      0.4936238027     3.2215806741     1.2761582595
 H      2.2987600122    -0.2342602539     2.3642586321
 F      2.5097733791    -0.3884237892     1.4852842505
 H      1.2401802030     0.8867216944     3.8529409389
 F      1.8497412931     0.2019545240     3.8733908738
 H      2.7430596634     3.7916196176    -0.6700523948
 F      2.3417564442     3.4471976232    -1.4191973848
 H     -1.5232078902     2.6060989261    -0.8091365170
 F     -1.5904644107     3.2763420740    -0.1869310178
 H     -0.1906407297     1.1604673386    -1.6645726530
 F     -1.0730564928     1.3682060030    -1.8026887941
 H      3.2648204564     3.8057344523     1.4571975359
 F      3.4383114944     4.3346847706     0.7284990931
 H      3.7285991222     2.7995294683     3.3770732032
 F      3.0546733766     2.7822071219     2.7554519152
 H      5.7948934961     2.2682512196     3.9924352905
 F      5.0939263820     2.7808388567     4.2870333543
 H      6.8306190781     1.0948208474     2.3531435987
 F      6.9177164303     1.3071187740     3.2409682669
 H      0.2661442870     2.5503463423     2.7773086606
 F      0.1301191365     2.0775062052     3.5511357493
 H      3.3834311521     0.7009112858     0.5863894845
 F      3.9579018782     1.3203275409     0.2297441596
          28
Energy: -112.6001157145707 Kcal/mole
 H      1.8346539217     1.8796363580    -1.3150093174
 F      1.4035918161     1.0747606554    -1.2298649432
 H      5.5580998634     0.9658069494     0.4966551063
 F      6.4132348558     0.7857944654     0.7745555387
 H     -0.2546260788     3.3342722387     0.7688651350
 F      0.5088998512     3.2370230726     1.2673225092
 H      2.2882009366    -0.2436774208     2.3612270805
 F      2.5131905446    -0.4002820262     1.4861592695
 H      1.2428844081     0.8893112967     3.8611402325
 F      1.8495978413     0.2018171516     3.8729559202
 H      2.7478598366     3.8051144794    -0.6790288895
 F      2.3415018061     3.4464817520    -1.4187212025
 H     -1.5139065668     2.6121513236    -0.8145220251
 F     -1.5909578245     3.2760210083    -0.1866453290
 H     -0.1922160641     1.1540164928    -1.6643788094
 F     -1.0729729249     1.3685482055    -1.8026990771
 H      3.2649949145     3.7910293870     1.4463231952
 F      3.4383022398     4.3354648403     0.7290759518
 H      3.7369974453     2.7990420926     3.3678498104
 F      3.0542278650     2.7822329761     2.7559411948
 H      5.7945884251     2.2669363957     3.9940047985
 F      5.0939425653     2.7809086051     4.2869500956
 H      6.8294556386     1.0956673896     2.3530565402
 F      6.9177781481     1.3070738669     3.2409728852
 H      0.2763941367     2.5475786483     2.7774959486
 F      0.1295754057     2.0776530250     3.5511258141
 H      3.3810405331     0.6956494970     0.5730897213
 F      3.9580286951     1.3206066666     0.2304496813
          28
Energy: -112.60507761252613 Kcal/mole
 H      1.8345381363     1.8800333214    -1.3117773307
 F      1.4035979583     1.0747395974    -1.2300363927
 H      5.5536763299     0.9655854595     0.4906071471
 F      6.4061335702     0.7814564369     0.7739834984
 H     -0.2557363220     3.3361544078     0.7709425955
 F      0.5089587470     3.2369232279     1.2672123048
 H      2.2864182123    -0.2399383438     2.3600884622
 F      2.5132851140    -0.4004803756     1.4862196705
 H      1.2434307324     0.8897894340     3.8609332558
 F      1.8495688600     0.2017917875     3.8729668999
 H      2.7471222352     3.7894669038    -0.6712547954
 F      2.3415409341     3.4473118197    -1.4191336002
 H     -1.5191885366     2.6157713779    -0.8189469825
 F     -1.5906776282     3.2758289728    -0.1864105953
 H     -0.1877629859     1.1656308482    -1.6758063076
 F     -1.0732091504     1.3679320908    -1.8020928747
 H      3.2612247988     3.8087785471     1.4568831632
 F      3.4306359996     4.3425418892     0.7307388665
 H      3.7374493490     2.8042632188     3.3671781304
 F      3.0542038925     2.7819560074     2.7559768259
 H      5.7910513903     2.2622208984     3.9938809825
 F      5.0941301968     2.7811587513     4.2869566637
 H      6.8284455494     1.0800738318     2.3570238579
 F      6.9178317310     1.3079010691     3.2407624282
 H      0.2743779800     2.5603629177     2.7810061609
 F      0.1275096487     2.0889768482     3.5537375933
 H      3.3856120831     0.6989193162     0.5864299398
 F      3.9577861849     1.3204332103     0.2297420136
          28
Energy: -112.59861160914551 Kcal/mole
 H      1.8369075049     1.8791677542    -1.3076633338
 F      1.4034722687     1.0747855138    -1.2302546307
 H      5.5558101337     0.9645325389     0.4836056523
 F      6.4060203768     0.7815122919     0.7743549115
 H     -0.2528959922     3.3339026333     0.7659790860
 F      0.5103257395     3.2269325485     1.2629086477
 H      2.3013405427    -0.2381033659     2.3634822329
 F      2.5124935189    -0.4005777169     1.4860396389
 H      1.2429779567     0.8891349460     3.8508218906
 F      1.8495928787     0.2018265066     3.8735032844
 H      2.7321945411     3.8002160767    -0.6683214146
 F      2.3423328138     3.4467416009    -1.4192892093
 H     -1.5293386939     2.6111082855    -0.8151120699
 F     -1.5901391858     3.2760763390    -0.1866140285
 H     -0.1901577117     1.1609073739    -1.6670212593
 F     -1.0730821158     1.3681826602    -1.8025589012
 H      3.2542247675     3.7974034327     1.4466838076
 F      3.4310073351     4.3431453127     0.7312799187
 H      3.7306846633     2.8009361429     3.3624881719
 F      3.0508322488     2.7708241830     2.7478476555
 H      5.7956882014     2.2670063903     3.9965259673
 F      5.0938842247     2.7809048920     4.2868163534
 H      6.8213778091     1.0815283489     2.3573948585
 F      6.9182066583     1.3078239103     3.2407427474
 H      0.2722928622     2.5578331394     2.7790764857
 F      0.1276202594     2.0891110471     3.5538399581
 H      3.3871956236     0.6947181082     0.5815853140
 F      3.9577021817     1.3206560746     0.2299990098
          28
Energy: -112.60051891414383 Kcal/mole
 H      1.8355712678     1.8799723156    -1.3067627809
 F      1.4035431530     1.0747428336    -1.2303024030
 H      5.5571351616     0.9647636602     0.4799045681
 F      6.4059500872     0.7815000315     0.7745512455
 H     -0.2528991003     3.3241917060     0.7639975440
 F      0.5103259044     3.2274476907     1.2630137639
 H      2.2939795511    -0.2316446787     2.3604518415
 F      2.5128840025    -0.4009203353     1.4862003941
 H      1.2379945191     0.8902444477     3.8557218221
 F      1.8529648258     0.2102502806     3.8732846946
 H      2.7556500328     3.7904447198    -0.6763973376
 F      2.3410885542     3.4472599489    -1.4188608002
 H     -1.5259677215     2.6130421075    -0.8168169130
 F     -1.5903180081     3.2759737543    -0.1865235905
 H     -0.1896515860     1.1577290990    -1.6754981424
 F     -1.0731089646     1.3683512603    -1.8021092222
 H      3.2506913872     3.8156375332     1.4528769182
 F      3.4406603554     4.3393706183     0.7245195562
 H      3.7300925971     2.7878929413     3.3744699853
 F      3.0442983847     2.7840337310     2.7657332568
 H      5.7896826493     2.2579340374     3.9982880300
 F      5.0942028054     2.7813861594     4.2867228800
 H      6.8229441180     1.0861271103     2.3560601881
 F      6.9181235692     1.3075799566     3.2408135486
 H      0.2763890852     2.5578796243     2.7798813462
 F      0.1274029643     2.0891085812     3.5537972621
 H      3.3799909969     0.7018382870     0.5791306967
 F      3.9538253781     1.3254667137     0.2288583907
          28
Energy: -112.59766428634117 Kcal/mole
 H      1.8264593879     1.8852486116    -1.3017448646
 F      1.4040265172     1.0744629383    -1.2305685918
 H      5.5561321625     0.9743994214     0.4891062421
 F      6.4060032940     0.7809888766     0.7740631179
 H     -0.2551806120     3.3250331934     0.7676706367
 F      0.5104469333     3.2274030518     1.2628189148
 H      2.2993732060    -0.2269190310     2.3667198754
 F      2.5197061355    -0.3922151847     1.4920658971
 H      1.2369983016     0.8888906108     3.8430704181
 F      1.8530176729     0.2103220985     3.8739558224
 H      2.7586713373     3.7961888075    -0.6807828802
 F      2.3409282810     3.4469552383    -1.4186281573
 H     -1.5228592949     2.6157476241    -0.8193257273
 F     -1.5904829029     3.2758302329    -0.1863905037
 H     -0.1911522674     1.1596651733    -1.6625303471
 F     -1.0730293569     1.3682485561    -1.8027971337
 H      3.2519439088     3.8127130276     1.4510910797
 F      3.4405939120     4.3395257566     0.7246142908
 H      3.7310379189     2.7998947634     3.3732021580
 F      3.0442482375     2.7833970621     2.7658005121
 H      5.7958178837     2.2676371937     3.9957246975
 F      5.0938773454     2.7808714294     4.2868588589
 H      6.8207533004     1.0879162107     2.3558528474
 F      6.9182397870     1.3074850490     3.2408245476
 H      0.2839281676     2.5564966513     2.7642154748
 F      0.1328093340     2.0760847235     3.5305420878
 H      3.3770196112     0.7046428959     0.5792310613
 F      3.9539830033     1.3253179357     0.2288530666
          28
Energy: -112.60379847684528 Kcal/mole
 H      1.8420750437     1.8763952709    -1.3073037828
 F      1.4031981428     1.0749325876    -1.2302737040
 H      5.5558787662     0.9651113257     0.4837699545
 F      6.4060167360     0.7814815886     0.7743461957
 H     -0.2589949886     3.3190828909     0.7489612910
 F      0.5015580302     3.2185608459     1.2512992489
 H      2.2983821955    -0.2261559117     2.3663249778
 F      2.5197587063    -0.3922556664     1.4920868455
 H      1.2392951766     0.8912010003     3.8487497810
 F      1.8528958290     0.2101995377     3.8736545453
 H      2.7543058661     3.7997989921    -0.6800433443
 F      2.3411598591     3.4467637263    -1.4186673880
 H     -1.5198845574     2.6212521969    -0.8246920501
 F     -1.5906407059     3.2755382280    -0.1861058327
 H     -0.1953569138     1.1629665072    -1.6851659292
 F     -1.0747902482     1.3834370897    -1.8225658298
 H      3.2784025000     3.8112417971     1.4461331888
 F      3.4521702990     4.3375143841     0.7155642898
 H      3.7410121231     2.8104829149     3.3698667475
 F      3.0642347629     2.7935111550     2.7513415951
 H      5.7925102917     2.2637420182     3.9946658854
 F      5.0940528055     2.7810780594     4.2869150264
 H      6.8160235960     1.0817432398     2.3579440088
 F      6.9184906869     1.3078125109     3.2407136163
 H      0.2759900249     2.5404202439     2.7528808852
 F      0.1332304341     2.0769375398     3.5311433616
 H      3.3832453608     0.7037416097     0.5877186315
 F      3.9536527416     1.3253657468     0.2284028206
          28
Energy: -112.60436706081431 Kcal/mole
 H      1.8385629437     1.8780899828    -1.3095429660
 F      1.4033844515     1.0748426870    -1.2301549206
 H      5.5502970679     0.9636427690     0.4884144605
 F      6.4003168049     0.7776825922     0.7778522938
 H     -0.2661938167     3.3151957955     0.7592640809
 F      0.5019399114     3.2187670474     1.2507527097
 H      2.2894104595    -0.2269750900     2.3641570614
 F      2.5202346361    -0.3922122109     1.4922018485
 H      1.2383878887     0.8898436786     3.8369756989
 F      1.8529439585     0.2102715404     3.8742791332
 H      2.7587781231     3.7936125572    -0.6796296530
 F      2.3409226162     3.4470919024    -1.4186893334
 H     -1.5268943463     2.6192864521    -0.8309490502
 F     -1.5921144292     3.2795938305    -0.1979960449
 H     -0.1958381364     1.1652748876    -1.6785698717
 F     -1.0747647204     1.3833146354    -1.8229157354
 H      3.2690582932     3.8037724976     1.4391642048
 F      3.4514221042     4.3374227300     0.7160806204
 H      3.7452004625     2.8090521938     3.3652886947
 F      3.0640125812     2.7935870514     2.7515844502
 H      5.7904898177     2.2598328912     4.0056170005
 F      5.0895322355     2.7754122082     4.2949704792
 H      6.8263652478     1.0883928306     2.3551355735
 F      6.9179420862     1.3074597654     3.2408625973
 H      0.2891919997     2.5420094717     2.7563769065
 F      0.1325300999     2.0768532349     3.5309579058
 H      3.3831126376     0.7032796184     0.5867068423
 F      3.9536597823     1.3253902544     0.2284564937
          28
Energy: -112.60645612431188 Kcal/mole
 H      1.8351417613     1.8880531709    -1.3126842181
 F      1.3970871941     1.0857573753    -1.2397551248
 H      5.5521454005     0.9707455493     0.4876487879
 F      6.4002187552     0.7773058061     0.7778929110
 H     -0.2603507583     3.3245087082     0.7521431088
 F      0.5016299507     3.2182730189     1.2511304608
 H      2.2976056306    -0.2296625909     2.3667866838
 F      2.5197999012    -0.3920696452     1.4920623531
 H      1.2381242726     0.8896770305     3.8383092239
 F      1.8529579427     0.2102803807     3.8742083927
 H      2.7526458381     3.8012697319    -0.6798213164
 F      2.3412479198     3.4466857070    -1.4186791661
 H     -1.5236808498     2.6111207298    -0.8219681558
 F     -1.5922848978     3.2800270033    -0.1984724606
 H     -0.1925348701     1.1711285836    -1.6905277120
 F     -1.0749399511     1.3830041104    -1.8222813996
 H      3.2729449441     3.8075287459     1.4428852604
 F      3.4512159264     4.3372234697     0.7158832270
 H      3.7395531122     2.7978336817     3.3660333870
 F      3.0619617149     2.7866342287     2.7482684879
 H      5.7936946043     2.2609978843     4.0113864899
 F      5.0893622290     2.7753504081     4.2946644212
 H      6.8283442112     1.0897173689     2.3546069040
 F      6.9178371068     1.3073895017     3.2408906420
 H      0.2785806311     2.5504932805     2.7594573842
 F      0.1330930085     2.0764031885     3.5307944936
 H      3.3860032149     0.7044055248     0.5931896114
 F      3.9535064438     1.3253305277     0.2281125977
          28
Energy: -112.6066829354817 Kcal/mole
 H      1.8275692469     1.8915038087    -1.3193844684
 F      1.3974888985     1.0855743270    -1.2393996920
 H      5.5491793379     0.9693849232     0.4955409072
 F      6.4003760979     0.7773779842     0.7774742523
 H     -0.2649556844     3.3158440245     0.7574617917
 F      0.5018742314     3.2187326603     1.2508483170
 H      2.2887281823    -0.2329670397     2.3650894483
 F      2.5202708294    -0.3918943518     1.4921523875
 H      1.2405875377     0.8922332659     3.8454265627
 F      1.8528272722     0.2101447784     3.8738308344
 H      2.7542735908     3.7886605712    -0.6748094999
 F      2.3411615713     3.4473545938    -1.4189450314
 H     -1.5236129423     2.6191803407    -0.8304910930
 F     -1.5922885001     3.2795994595    -0.1980203385
 H     -0.1901382685     1.1807560222    -1.7065159437
 F     -1.0722933495     1.3922501022    -1.8405370883
 H      3.2818693267     3.8083970674     1.4456425690
 F      3.4507425085     4.3371774072     0.7157369582
 H      3.7342768835     2.8031056585     3.3716506989
 F      3.0622416067     2.7863545625     2.7479705024
 H      5.7912070123     2.2601542706     4.0067853650
 F      5.0894941900     2.7753951598     4.2949085002
 H      6.8199183570     1.0799019272     2.3579745399
 F      6.9182840789     1.3079101882     3.2407119967
 H      0.2833130780     2.5466968406     2.7580430764
 F      0.1328419631     2.0766045808     3.5308695193
 H      3.3811039237     0.7018011060     0.5808812835
 F      3.9537663399     1.3254686861     0.2287655261
          28
Energy: -112.6055571507292 Kcal/mole
 H      1.8329462811     1.8893638739    -1.3113932182
 F      1.3972036593     1.0856878456    -1.2398236094
 H      5.5545387803     0.9719268974     0.4815238117
 F      6.4000917919     0.7772431383     0.7782178268
 H     -0.2618501667     3.3230188182     0.7541244421
 F      0.5017094908     3.2183520541     1.2510253557
 H      2.2977433145    -0.2255087849     2.3660397019
 F      2.5197925974    -0.3922899950     1.4921019788
 H      1.2356092780     0.8873901785     3.8382732434
 F      1.8530913574     0.2104016929     3.8742103014
 H      2.7478496622     3.8009104931    -0.6770005465
 F      2.3415023458     3.4467047638    -1.4188288014
 H     -1.5242943081     2.6302330823    -0.8418958645
 F     -1.5922523552     3.2790131371    -0.1974153417
 H     -0.1924997236     1.1760227697    -1.6987863819
 F     -1.0721680797     1.3925011903    -1.8409471237
 H      3.2729416329     3.8107781581     1.4452403109
 F      3.4512161020     4.3370510959     0.7157582970
 H      3.7365667792     2.7966218531     3.3693128768
 F      3.0621201330     2.7866985134     2.7480945185
 H      5.7914202830     2.2629019122     4.0024396534
 F      5.0894828764     2.7752494038     4.2951390302
 H      6.8224579431     1.0770631174     2.3584335821
 F      6.9181493597     1.3080607805     3.2406876455
 H      0.2799938175     2.5412962744     2.7541494759
 F      0.1330180422     2.0768910684     3.5310760658
 H      3.3801858386     0.7028489291     0.5812409678
 F      3.9538150422     1.3254131015     0.2287464457
          28
Energy: -112.61466372798631 Kcal/mole
 H      1.8383921784     1.8856154696    -1.3195209363
 F      1.3969147670     1.0858866898    -1.2393924527
 H      5.5486042859     0.9682876310     0.4965344844
 F      6.4004066031     0.7774361930     0.7774215453
 H     -0.2623019782     3.3217956307     0.7545630698
 F      0.5017334584     3.2184169413     1.2510020875
 H      2.2884509790    -0.2420829305     2.3666239753
 F      2.5202855344    -0.3914107749     1.4920709844
 H      1.2327928284     0.8775425876     3.8420585667
 F      1.8437804211     0.1947853403     3.8798170472
 H      2.7782801766     3.7853358108    -0.6859470650
 F      2.3766680314     3.4467044945    -1.4375623365
 H     -1.5299567721     2.6182033942    -0.8301253993
 F     -1.5919519746     3.2796512843    -0.1980397377
 H     -0.1926398324     1.1805025478    -1.6913755397
 F     -1.0721606473     1.3922635484    -1.8413402518
 H      3.2725300577     3.8058337774     1.4415450618
 F      3.4512379352     4.3373133838     0.7159543215
 H      3.7371598630     2.8003222800     3.3685975271
 F      3.0620886713     2.7865022143     2.7481324661
 H      5.7902270239     2.2594834660     4.0056033488
 F      5.0895461761     2.7754307444     4.2949712034
 H      6.8242226309     1.0881990406     2.3554078278
 F      6.9180557471     1.3074700455     3.2408481548
 H      0.2786483809     2.5422087432     2.7544422259
 F      0.1330894145     2.0768426640     3.5310605361
 H      3.3803951120     0.7089060885     0.5920500928
 F      3.9538039407     1.3250917832     0.2281730466
          28
Energy: -112.61431726876269 Kcal/mole
 H      1.8425469203     1.8833646497    -1.3189454878
 F      1.3966943675     1.0860060906    -1.2394229789
 H      5.5519282271     0.9735437202     0.4901741160
 F      6.4002302757     0.7771573696     0.7777589481
 H     -0.2694062715     3.3193575609     0.7603542417
 F      0.4989571023     3.2196988393     1.2508385585
 H      2.2868107041    -0.2440539683     2.3665217411
 F      2.5203725471    -0.3913062159     1.4920764077
 H      1.2325793699     0.8773311925     3.8416932636
 F      1.8437917445     0.1947965543     3.8798364257
 H      2.7775842142     3.7949313482    -0.6899745475
 F      2.3767049506     3.4461954734    -1.4373486879
 H     -1.5249356968     2.6198038665    -0.8312834976
 F     -1.5922183310     3.2795663829    -0.1979783033
 H     -0.1912315177     1.1800702076    -1.7005486470
 F     -1.0722353551     1.3922864831    -1.8408536396
 H      3.2662088776     3.8039700625     1.4385851960
 F      3.4515732592     4.3374122496     0.7161113355
 H      3.7390645754     2.8022966040     3.3664709846
 F      3.0619876307     2.7863974809     2.7482452743
 H      5.7932129655     2.2683451805     3.9973170433
 F      5.0893877788     2.7749606510     4.2954107728
 H      6.8257658907     1.0898710776     2.3548334939
 F      6.9179738807     1.3073813478     3.2408786219
 H      0.2772226315     2.5529433110     2.7607135475
 F      0.1331650472     2.0762732200     3.5307278570
 H      3.3849440753     0.7048551818     0.5923049460
 F      3.9535626287     1.3253066744     0.2281595272
          28
Energy: -112.6118390923285 Kcal/mole
 H      1.8368638701     1.8859773384    -1.3241713570
 F      1.3969958402     1.0858674935    -1.2391457587
 H      5.5485222888     0.9622304799     0.4927630034
 F      6.4004109529     0.7777575109     0.7776216137
 H     -0.2576206745     3.3251639579     0.7463772699
 F      0.5042082260     3.2240132974     1.2466514649
 H      2.3020434112    -0.2403329998     2.3698092029
 F      2.5195644872    -0.3915036047     1.4919020154
 H      1.2374201038     0.8817605896     3.8440555962
 F      1.8435349548     0.1945615851     3.8797111094
 H      2.7596440176     3.8001576178    -0.6864690022
 F      2.3527140389     3.4532385820    -1.4314147553
 H     -1.5206670021     2.6284878386    -0.8397394554
 F     -1.5924447754     3.2791057183    -0.1975297343
 H     -0.1906206347     1.1820598966    -1.7013939703
 F     -1.0722677611     1.3921809347    -1.8408087972
 H      3.2755539537     3.7926043735     1.4324053191
 F      3.4510775245     4.3380151731     0.7164391637
 H      3.7416303133     2.8088315588     3.3634431573
 F      3.0618515242     2.7860508167     2.7484058936
 H      5.7896051210     2.2571030522     4.0083666835
 F      5.0895791666     2.7755570199     4.2948246149
 H      6.8217086928     1.0838989961     2.3567549366
 F      6.9181891057     1.3076981530     3.2407766938
 H      0.2773401355     2.5464353401     2.7567465637
 F      0.1331588139     2.0766184528     3.5309382963
 H      3.3807565080     0.7063397296     0.5882430549
 F      3.9537847695     1.3252279226     0.2283750011
          28
Energy: -112.61782213192457 Kcal/mole
 H      1.8293920286     1.8913762523    -1.3103037962
 F      1.3973922041     1.0855810935    -1.2398814007
 H      5.5489651322     0.9568805049     0.4880680444
 F      6.4003874610     0.7780413147     0.7778706704
 H     -0.2597371193     3.3287254427     0.7503550553
 F      0.5043204985     3.2238243689     1.2464404526
 H      2.2959367582    -0.2361815944     2.3675455203
 F      2.5198884311    -0.3917238271     1.4920220986
 H      1.2310234151     0.8765156449     3.8542527474
 F      1.8438742843     0.1948398173     3.8791701741
 H      2.7602471540     3.8002937823    -0.6868622591
 F      2.3526820439     3.4532313588    -1.4313938939
 H     -1.5274596315     2.6224542227    -0.8342940491
 F     -1.5920844421     3.2794257876    -0.1978186005
 H     -0.1926671492     1.1757963159    -1.6980972684
 F     -1.0721591982     1.3925132032    -1.8409836796
 H      3.2759084668     3.8014189401     1.4391166618
 F      3.4510587184     4.3375475807     0.7160831425
 H      3.7354534958     2.8010512308     3.3704320548
 F      3.0621791901     2.7864635451     2.7480351487
 H      5.7902882809     2.2618433117     4.0015835780
 F      5.0895429265     2.7753055601     4.2951844430
 H      6.8292604565     1.0880998137     2.3549137679
 F      6.9177885021     1.3074753093     3.2408743636
 H      0.2792896842     2.5396946715     2.7530617944
 F      0.1330553948     2.0769760297     3.5311337648
 H      3.3815545316     0.7067326244     0.5901827945
 F      3.9537424362     1.3252070804     0.2282721024
          28
Energy: -112.61904366840025 Kcal/mole
 H      1.8318868863     1.8894050052    -1.3171308757
 F      1.3972598577     1.0856856636    -1.2395192399
 H      5.5475915724     0.9627615659     0.4959107382
 F      6.4004603252     0.7777293380     0.7774546336
 H     -0.2579157304     3.3205066301     0.7459080726
 F      0.5042238780     3.2242603579     1.2466763547
 H      2.2918839155    -0.2348905023     2.3662676034
 F      2.5201034250    -0.3917923166     1.4920898891
 H      1.2334612613     0.8786058866     3.8518198039
 F      1.8437449622     0.1947289348     3.8792992361
 H      2.7593054094     3.7968703816    -0.6847629555
 F      2.3527320013     3.4534129623    -1.4315052571
 H     -1.5259028290     2.6248029038    -0.8365495164
 F     -1.5921670269     3.2793011955    -0.1976989532
 H     -0.1921356240     1.1745543767    -1.7033613993
 F     -1.0721873944     1.3925790852    -1.8407044296
 H      3.2695230031     3.8041301307     1.4395449904
 F      3.4513974525     4.3374037583     0.7160604206
 H      3.7411358890     2.7976622953     3.3642957018
 F      3.0618777523     2.7866433203     2.7483606680
 H      5.7909137271     2.2666282513     3.9948317468
 F      5.0895097481     2.7750517301     4.2955426120
 H      6.8229983098     1.0868841268     2.3558652433
 F      6.9181206945     1.3075397987     3.2408238900
 H      0.2843193852     2.5459099413     2.7577615201
 F      0.1327885808     2.0766463240     3.5308844552
 H      3.3784456046     0.7067008061     0.5851624138
 F      3.9539073576     1.3252087683     0.2285384220
          28
Energy: -112.61338874474505 Kcal/mole
 H      1.8292041631     1.8908811058    -1.3168038695
 F      1.3974021700     1.0856073599    -1.2395365868
 H      5.5516137812     0.9711487872     0.4894777659
 F      6.4002469563     0.7772844153     0.7777958879
 H     -0.2620310448     3.3240783418     0.7529410367
 F      0.5044421860     3.2240708869     1.2463032722
 H      2.2934210568    -0.2378646931     2.3671954544
 F      2.5200218832    -0.3916345426     1.4920406688
 H      1.2317534263     0.8768951653     3.8476235406
 F      1.8438355589     0.1948196846     3.8795218382
 H      2.7630722593     3.7880611133    -0.6828294795
 F      2.3525321786     3.4538802736    -1.4316078236
 H     -1.5232738777     2.6169672314    -0.8281345755
 F     -1.5923064867     3.2797168598    -0.1981453463
 H     -0.1924020836     1.1772420608    -1.6975451081
 F     -1.0721732593     1.3924365097    -1.8410129704
 H      3.2852069579     3.8007987246     1.4408438572
 F      3.4505654549     4.3375804817     0.7159915187
 H      3.7337871179     2.8058071940     3.3720993440
 F      3.0622675876     2.7862112523     2.7479467029
 H      5.7920134341     2.2628800006     4.0039049702
 F      5.0894514111     2.7752505661     4.2950612985
 H      6.8198117292     1.0834847136     2.3570691516
 F      6.9182897352     1.3077201297     3.2407600254
 H      0.2801948022     2.5498830239     2.7593887965
 F      0.1330073804     2.0764355612     3.5307981320
 H      3.3822332971     0.7035470718     0.5857683138
 F      3.9537064293     1.3253760666     0.2285062804
          28
Energy: -112.61955413122917 Kcal/mole
 H      1.8327798695     1.8889163070    -1.3171838888
 F      1.3972124870     1.0857115880    -1.2395164277
 H      5.5504470137     0.9649542866     0.4888202035
 F      6.4003088507     0.7776130192     0.7778307701
 H     -0.2615613717     3.3182111457     0.7510627889
 F      0.5044172709     3.2243821281     1.2464029089
 H      2.2902326950    -0.2409202927     2.3668950021
 F      2.5201910184    -0.3914724501     1.4920566071
 H      1.2379831269     0.8823317443     3.8455344852
 F      1.8435050877     0.1945312866     3.8796326578
 H      2.7562539375     3.7994287919    -0.6842895991
 F      2.3528938748     3.4532772445    -1.4315303676
 H     -1.5293188990     2.6204588114    -0.8324140848
 F     -1.5919858123     3.2795316396    -0.1979183282
 H     -0.1929648955     1.1702348877    -1.7049889604
 F     -1.0721434034     1.3928082241    -1.8406180913
 H      3.2735077872     3.8021810821     1.4390956198
 F      3.4511860689     4.3375071509     0.7160842587
 H      3.7381525457     2.7991711471     3.3675402106
 F      3.0620360117     2.7865632792     2.7481885543
 H      5.7960681771     2.2681846694     4.0044351766
 F      5.0892363164     2.7749691657     4.2950331723
 H      6.8203653444     1.0886856121     2.3557051436
 F      6.9182603672     1.3074442340     3.2408323829
 H      0.2807783353     2.5487486223     2.7588052481
 F      0.1329764253     2.0764957386     3.5308290879
 H      3.3830995080     0.7047301763     0.5891926874
 F      3.9536604788     1.3253133057     0.2283246253
          28
Energy: -112.61943388094319 Kcal/mole
 H      1.8357442278     1.8869084250    -1.3211315848
 F      1.3970552346     1.0858181015    -1.2393070115
 H      5.5496456947     0.9627541561     0.4897619993
 F      6.4003513588     0.7777297311     0.7777808100
 H     -0.2613556891     3.3192406648     0.7509409300
 F      0.5044063599     3.2243275144     1.2464093733
 H      2.2940131614    -0.2377707726     2.3673320362
 F      2.5199904734    -0.3916395249     1.4920334234
 H      1.2336278570     0.8786105308     3.8484532032
 F      1.8437361247     0.1947286884     3.8794778265
 H      2.7584772112     3.7962018519    -0.6840057512
 F      2.3527759353     3.4534484263    -1.4315454251
 H     -1.5311777474     2.6241072620    -0.8363606114
 F     -1.5918872047     3.2793380977    -0.1977089741
 H     -0.1935005818     1.1756987323    -1.6932060947
 F     -1.0721149865     1.3925183797    -1.8412431451
 H      3.2761611910     3.8024247190     1.4399224107
 F      3.4510453119     4.3374942265     0.7160403993
 H      3.7407741038     2.8024593262     3.3645890069
 F      3.0618969442     2.7863888489     2.7483451089
 H      5.8018727798     2.2652522768     4.0045027267
 F      5.0952146779     2.7752527879     4.2898495432
 H      6.8249220370     1.0884403501     2.3552742874