          4
Energy: -0.41394927993294417 Kcal/mole
 Ne     2.4082331729     0.4626776070    -1.9638071277
 Ne     2.5542155635    -2.6547200194    -2.0923410783
 Ne    -0.0552866537    -1.2696438152    -1.1057231757
 Ne     0.7700248193    -1.0893100331    -4.1132050439
