          4
Energy: -0.4139373993724825 Kcal/mole
 Ne     2.4421877058     2.0974897716    -2.9717742118
 Ne     3.0071740150     1.5179216393     0.0335297093
 Ne     0.0719898718     1.9917769556    -0.9520099845
 Ne     1.5746295191    -0.6276321495    -1.7204715557
