          4
Energy: -0.004236402772293577 Kcal/mole
 Ne    -0.0624650361    -2.6771886481     4.4141005710
 Ne     2.0343156623     4.6961307702    -3.1560847541
 Ne     4.6999227653     1.1589639265     3.4865062301
 Ne    -3.4776307337    -2.7287603021    -1.6469488187
