          4
Energy: -0.41388658381249466 Kcal/mole
 Ne    -2.3598981689     1.3796104131    -0.5403844887
 Ne    -3.4228907528     1.0605241104    -3.4497817515
 Ne    -1.4995455546    -1.0738040454    -2.2445106354
 Ne    -4.4375921755    -0.8511039938    -1.2221725486
