          4
Energy: -2.5332916122402366E-4 Kcal/mole
 Ne     5.8165267109    -6.1812251340    -6.2577472656
 Ne    -6.7120935573    -1.7551244110     6.4182001087
 Ne    -2.2807519948    -0.6545341897    -5.5317522780
 Ne     6.7367752601     0.5788536249     3.9474072784
          4
Energy: -0.006365721947223014 Kcal/mole
 Ne     1.1289148061     7.2605561055    -7.1418920988
 Ne     0.0137598416    -4.6899542396     2.0254525930
 Ne     4.1430137112    -4.3658572842     5.1787108265
 Ne    -6.9401145685    -2.1189456410    -6.7871267040
          4
Energy: -0.00116864006423128 Kcal/mole
 Ne     5.1518495705    -2.3944973919    -1.1166136018
 Ne    -1.3436177547     5.1523597459     5.6875298730
 Ne    -0.4662809574    -2.6299701044     5.2019261278
 Ne    -4.1836609492     6.3251872666    -3.2398002388
          4
Energy: -0.0036102508830620755 Kcal/mole
 Ne     4.4015570948     4.9077184313     3.0277964130
 Ne    -0.6498732156     1.4313910203    -6.0031982158
 Ne    -7.2497013313    -6.9221290508     5.8097235056
 Ne    -6.9376149968    -3.6068534212     1.1026555291
          4
Energy: -0.014919197110985084 Kcal/mole
 Ne     0.9598843758    -1.7544140749     0.1505583389
 Ne    -3.3814758648     0.8757327570    -1.2927025897
 Ne     6.1973968054     4.5767295321    -4.1713018777
 Ne     3.9986720396     1.1279763055     2.8497256706
          4
Energy: -0.06873251707719705 Kcal/mole
 Ne     3.7556315311     6.6006629078     4.2279664206
 Ne    -6.6983610985    -3.2908234626    -6.4497269292
 Ne     2.5492254631     6.4792870498    -7.4449284830
 Ne    -5.4440229584    -2.6394925719    -3.6224190491
          4
Energy: -0.003046316462013969 Kcal/mole
 Ne    -0.2633550284    -4.6387513302    -7.1311216750
 Ne    -6.4284132632     6.0107270750    -6.0228962458
 Ne    -2.6297044823     4.1652908383    -0.9185318053
 Ne    -3.4333958300    -1.6866629705     2.4215368963
          4
Energy: -0.07359958615730358 Kcal/mole
 Ne     1.5439058924     5.3194736050     2.7815038606
 Ne     3.4862322299     2.7945868651     3.4502538602
 Ne    -2.2443328593    -5.5355016876     0.4287925090
 Ne    -1.4574839152    -3.5665292152    -4.1140120545
          4
Energy: -0.006335610989093398 Kcal/mole
 Ne    -5.3031313830     3.8379865501     0.4532211186
 Ne    -7.0203837921     3.7782316393    -5.1534765706
 Ne     3.9168056215    -0.2609352448    -4.1340378025
 Ne    -2.0757716283    -0.4982918523     2.9565275522
          4
Energy: -0.41388658381249466 Kcal/mole
 Ne    -2.3598981689     1.3796104131    -0.5403844887
 Ne    -3.4228907528     1.0605241104    -3.4497817515
 Ne    -1.4995455546    -1.0738040454    -2.2445106354
 Ne    -4.4375921755    -0.8511039938    -1.2221725486
