          4
Energy: -0.0072034525860852905 Kcal/mole
 Ne     6.0722196429    -2.9058748993     2.0159175459
 Ne    -6.1351785550    -4.5186811536     5.8421693943
 Ne     5.5010832314     7.1323714024     1.4841650534
 Ne     7.1896368507     5.5526868677    -3.0807836514
          4
Energy: -0.11829657733776318 Kcal/mole
 Ne    -2.5501096724    -4.5487060590    -1.8287298482
 Ne    -6.0897088930    -4.9359092287    -2.1733867531
 Ne     0.2475848162    -5.4959639198    -2.8157394664
 Ne     7.3794216952    -7.4746778671     7.3322997256
          4
Energy: -0.0016451865951479087 Kcal/mole
 Ne     2.1641526800     2.2725136746    -6.2354217279
 Ne     4.6401657354    -7.0051064107    -6.5244510046
 Ne    -0.9207641433    -6.5896883347    -1.8144279192
 Ne    -5.8762909241    -1.3612552352     1.6871183149
          4
Energy: -0.01833622262837408 Kcal/mole
 Ne     0.8064415920     5.6834234888    -6.7521632195
 Ne    -3.5064841385     5.2887573801    -6.6311000061
 Ne    -5.7645293094    -2.5549625196    -1.5197997774
 Ne     0.6362807116    -7.1143676859     3.4159488982
          4
Energy: -0.002391019705286863 Kcal/mole
 Ne     4.4961882313    -5.5233876644    -3.1678655270
 Ne    -0.8674554304     0.2602050655    -0.8728235472
 Ne    -6.3841048211     6.3134904579    -0.5835824395
 Ne    -7.0645405673    -2.5810153341    -1.0812382775
          4
Energy: -0.01867505251468025 Kcal/mole
 Ne    -1.1258871502    -4.3440316388    -6.3334367823
 Ne    -4.2497069260     5.1740960527     4.0926222534
 Ne     0.0532124597     5.1870038235    -4.6462744051
 Ne    -3.0853397405     6.9084544544    -2.1100740544
          4
Energy: -0.0017637927757955028 Kcal/mole
 Ne     4.6657476426    -3.7941678561     4.1127795410
 Ne    -3.1714465158     5.1788001727     0.2331245387
 Ne     1.9889731952     1.8145111779     7.0251215762
 Ne    -5.5972831467    -4.0544277732     0.7520393612
          4
Energy: -0.05718848010587547 Kcal/mole
 Ne    -1.6809034962     7.3172723459    -2.7075967687
 Ne    -4.3805780359     2.8707299483    -3.1680896865
 Ne    -7.3798520150     2.4770217503    -0.9217237589
 Ne    -2.5038631764     6.0321323730     1.8888172742
          4
Energy: -0.015104737276404963 Kcal/mole
 Ne     4.9365617744     2.9302633326    -1.0984189455
 Ne     7.2373593870    -4.7141840541     0.7120981780
 Ne    -5.8169221356    -5.7536016671    -4.8509192329
 Ne    -2.9580380499    -2.8504060015    -2.9355482245
          4
Energy: -0.41394927993294417 Kcal/mole
 Ne     2.4082331729     0.4626776070    -1.9638071277
 Ne     2.5542155635    -2.6547200194    -2.0923410783
 Ne    -0.0552866537    -1.2696438152    -1.1057231757
 Ne     0.7700248193    -1.0893100331    -4.1132050439
