          4
Energy: -0.4138597746877376 Kcal/mole
 Ne    -4.4748603067    -3.8734994426     4.1395347261
 Ne    -5.7566363506    -1.0732583457     3.6049133625
 Ne    -3.6407826894    -2.2563921176     1.6191068615
 Ne    -2.7665307913    -1.2688704848     4.4564788568
