          6
Energy: -5.5032558874705035 Kcal/mole
 Xe     1.7045072603    -8.4347486220    -4.1551194254
 Xe     3.2397070052    -5.0177635471     0.8360239633
 Xe     4.8367302080    -5.4703634140    -3.2474410407
 Xe     0.1339067962    -8.0040822864    -0.0703643678
 Xe     4.3638133241    -9.0066000497    -0.6895535945
 Xe     0.5972362795    -4.4455028263    -2.6410161920
