          6
Energy: -3.47075344787416 Kcal/mole
 Xe     5.9512393395    -8.4509361773    -3.9666608103
 Xe     3.9220496674    -4.8497486002    -2.6080137051
 Xe     0.9685334005    -8.9302175860    -2.6275767856
 Xe     2.6929166544    -1.0145867186    -4.5548826609
 Xe     2.3830740180    -7.3661809721    -6.7737343040
 Xe     6.6409211052    -4.0558981921    -5.3015665015
          6
Energy: -4.316159908553428 Kcal/mole
 Xe     1.8532353488    -0.4623495497    -3.3964164945
 Xe     4.0546591928    -1.4972575333    -6.6699322485
 Xe     6.3917749582    -2.6152330612    -2.9756127733
 Xe     1.0851803717    -3.3553439479    -8.9843356323
 Xe     2.9713383057    -5.0896061237    -4.3999201742
 Xe     6.1870908455    -5.1489481032    -7.3328230385
          6
Energy: -4.381957168389488 Kcal/mole
 Xe     3.0485467326    -4.2061905018    -2.1473460659
 Xe     1.7043212248    -6.3841064531    -7.9790153103
 Xe    -2.8876759006    -4.4075323404    -3.8417001521
 Xe    -0.8060263289    -4.6555903827    -0.1171836546
 Xe     1.0333671431    -2.9546442855    -5.6004336132
 Xe     0.0855722037    -7.3356618435    -3.5727611021
          6
Energy: -4.625179158456191 Kcal/mole
 Xe     2.5387479252    -1.0824523088     1.5106661425
 Xe     0.7731119721    -4.7452892631     0.2323456572
 Xe     5.6893762474    -5.3185502205    -0.5256476194
 Xe     3.5648556910    -4.9782947634     3.5878153645
 Xe    -0.0981549919    -7.6547467944     3.0358242454
 Xe     3.3645858839    -8.7000260892     0.7891921101
          6
Energy: -4.78141365205355 Kcal/mole
 Xe     6.0691561904    -4.5795960552     5.2131228330
 Xe     2.6157459849    -5.2862716856     2.8732287109
 Xe     4.1165972225    -0.7677624726     3.7266171459
 Xe     5.7154361003    -8.3638924834     3.3662864245
 Xe     2.4810547784    -7.3126718037     6.6835565532
 Xe     6.2243182030    -3.9779638371     0.7754106137
          6
Energy: -4.759078793220394 Kcal/mole
 Xe     6.8385769349    -4.6841543429     1.6034650685
 Xe    -0.8204436749    -3.5704162794     1.9034402905
 Xe     6.6979638189    -0.6234915205     0.2060707744
 Xe     2.8109866517    -5.8630184620     3.0216732012
 Xe     4.0464160051    -1.3830757729     3.3123748762
 Xe     3.1384553536    -2.9783105010    -0.4138108099
          6
Energy: -4.716298889509884 Kcal/mole
 Xe     4.8579640908    -5.1506296573    -3.0653900840
 Xe     1.0585462907    -2.0354047868    -2.1406188878
 Xe     5.0201486493    -1.0556962214    -0.9830497090
 Xe     0.2774931105    -5.6634282002    -3.9458119985
 Xe     3.3567460015    -4.6032110816     1.0847318192
 Xe     3.5134148234    -2.1082373949    -5.6810558478
          6
Energy: -5.2133433565285126 Kcal/mole
 Xe     0.8885226043    -9.0073580479    -2.0662751291
 Xe     0.5077124856    -3.7135779157     1.4191202953
 Xe     4.0484658167    -6.2234574949    -0.2587847661
 Xe    -2.3869158245    -6.8036061212     0.1314708254
 Xe     0.9918933780    -8.2328862414     2.4344223094
 Xe     0.0205606904    -4.7098471855    -2.8243722355
          6
Energy: -5.404800165422849 Kcal/mole
 Xe     1.6991330277    -8.4124272910    -4.0972530251
 Xe     3.3407559182    -5.2188703092     0.8366003452
 Xe     4.7883450531    -5.5516073455    -3.2697971885
 Xe     0.3087467018    -8.0649468069     0.0862395500
 Xe     4.4182742633    -9.0577986816    -0.6844557555
 Xe     0.6777415439    -4.4086893760    -2.6063674754
          6
Energy: -5.5032558874705035 Kcal/mole
 Xe     1.7045072603    -8.4347486220    -4.1551194254
 Xe     3.2397070052    -5.0177635471     0.8360239633
 Xe     4.8367302080    -5.4703634140    -3.2474410407
 Xe     0.1339067962    -8.0040822864    -0.0703643678
 Xe     4.3638133241    -9.0066000497    -0.6895535945
 Xe     0.5972362795    -4.4455028263    -2.6410161920
