          6
Energy: -2.4472866711543984 Kcal/mole
 Xe    -5.0700798523     0.5028408818    -0.0455965682
 Xe     1.4548736962     0.2500628349    -4.9745329408
 Xe     3.5554167847     2.1631345452    -1.3798825744
 Xe    -3.2091078446     6.9892626678    -0.6049715164
 Xe    -2.9098695108    -1.0496694213    -3.8318108258
 Xe     0.4307135581     5.2069711365    -1.9394041231
          6
Energy: -0.6449438511898877 Kcal/mole
 Xe    -8.1507628594    -6.8161412296    -6.7287950721
 Xe     1.3085749149     2.5419166315     8.1977384521
 Xe    -4.8569733727     4.8567737119     7.9484761801
 Xe    -3.0803524297     8.1541293582     5.5630265560
 Xe     4.2460478445     7.3213315020    -3.0532965432
 Xe     6.1980940947    -1.4362706855     8.5418994150
          6
Energy: -1.3724396465394133 Kcal/mole
 Xe     8.3564212434     5.2021156723    -4.5950406905
 Xe    -3.4425220365     7.9590261305    -8.2826179920
 Xe    -7.6843851841     0.4382411700    -5.6228452478
 Xe     7.6551483220     3.4458538266     0.5084987619
 Xe    -7.2230362125     4.5982507584    -5.6234560465
 Xe     3.7343101397     4.3646238748    -2.2083240505
          6
Energy: -1.1634845058814065 Kcal/mole
 Xe     0.3940225550    -8.8759320546     7.4385108585
 Xe     3.8552711392    -3.3623108145     4.1791967781
 Xe     0.6296969450     0.2126948497     4.9693073926
 Xe     2.7674095825     1.4669892160    -1.4215876701
 Xe     0.2498908317    -5.1065710683     6.3783993849
 Xe    -6.2981481801    -3.1080332321     7.6630865029
          6
Energy: -1.8548937882447252 Kcal/mole
 Xe     7.4615198550     8.9149272249     5.3887000652
 Xe     1.2930575681    -0.6928353151     5.5212197722
 Xe    -4.7041836597    -3.0387032490     2.4834135211
 Xe     8.4430922901     3.5893216323    -8.4263233738
 Xe    -2.8666511758    -2.1813986320     6.9127481492
 Xe    -2.9646401997     0.6215568167     3.2549263682
          6
Energy: -2.351203102657379 Kcal/mole
 Xe     7.0216088585    -0.1315217401    -3.6431289998
 Xe    -0.3914004273     3.1826151336    -1.4926743464
 Xe    -0.3029079254    -2.4047815240    -5.6737506112
 Xe     3.7416070361    -2.3593700189    -3.6872120186
 Xe     0.5373514107    -0.8675499859    -1.8712416968
 Xe     0.6098121490     1.5497411535     2.3275946966
          6
Energy: -4.968265741260598 Kcal/mole
 Xe     1.5633781097    -4.0442240633    -2.1360950328
 Xe     0.3515743469    -5.2365130826     3.8914787992
 Xe    -2.3063495876    -5.1175279067     0.5689666053
 Xe     1.1266022145    -7.9721849702     0.6214200204
 Xe     3.6994934366    -3.8472504129     1.4685602012
 Xe    -0.2745600214    -1.5270457841     1.7322431750
          6
Energy: -4.760443767268409 Kcal/mole
 Xe    -0.1146761042    -4.8985613385    -1.3256527026
 Xe     1.4712104723    -8.4268269499     0.6351857694
 Xe    -2.7677292074    -7.8699991368     1.0953764828
 Xe     0.7688028919    -8.4648075793    -3.7951323616
 Xe     4.2057034945    -5.5825589275    -1.0539733519
 Xe     1.0024739326    -4.6412869364     2.6984298602
          6
Energy: -5.09003931932568 Kcal/mole
 Xe    -0.6213567203    -4.7625317759    -1.6786377907
 Xe     2.7343577752    -7.1297679724     0.8708453205
 Xe    -1.4435449145    -8.6522994490     0.3780080739
 Xe     3.4680906072    -5.3691841463    -3.0592852611
 Xe     3.1004907757    -2.8867562202     0.6331585049
 Xe    -0.7125988895    -4.9878333135     2.7667764474
          6
Energy: -5.326034002922496 Kcal/mole
 Xe    -0.5118739407    -4.9789396311    -1.7499284505
 Xe     2.7149527075    -7.0960287966     0.4458905086
 Xe    -1.3899613324    -8.6561341178     0.5004235204
 Xe     3.6060903950    -4.9031006275    -3.2750731853
 Xe     2.5998589232    -2.6921381276     0.4050266529
 Xe    -0.4281987221    -4.9527004498     2.6829751892
