          2
Energy: -0.0026031427311995893 Kcal/mole
 Kr     3.6573623344     4.3429323657     1.1469322556
 Kr     2.4216708749    -4.9387253387    -2.8013114723
