          2
Energy: -0.3169999993600223 Kcal/mole
 Kr    -6.7569366328    -5.6025624241     4.1159785199
 Kr    -7.3939445671    -2.8390211216     7.0321943992
