          2
Energy: -0.02867492799886458 Kcal/mole
 Kr     2.0281161947     5.8695844372     1.3488690159
 Kr    -3.6367096370     5.7462609312     5.0872948451
          2
Energy: -0.30795029875642277 Kcal/mole
 Kr    -5.9641048082    -5.6266885815     0.5375800985
 Kr    -2.4904580758    -4.1602022202     1.7587071659
          2
Energy: -0.012713848385048713 Kcal/mole
 Kr    -4.8183225530     5.9175058289     4.7939554080
 Kr     2.8476483078     5.5521812988     6.1351011897
          2
Energy: -0.30823932079963656 Kcal/mole
 Kr     1.6638907799     1.9405813370    -0.4909801301
 Kr     5.5116848317     0.3660011030     0.0530946611
          2
Energy: -0.0034185981503515035 Kcal/mole
 Kr    -7.2465552854    -5.0857889622    -5.6499002351
 Kr    -5.2555061973     1.7742188666     0.9268431409
          2
Energy: -0.24965987618688346 Kcal/mole
 Kr    -3.0079361151     6.9633089719    -6.6192149297
 Kr    -5.4787157527     4.6627794478    -3.6302298226
          2
Energy: -0.23810403915386222 Kcal/mole
 Kr     6.1818860505    -1.9333848990     2.9878360507
 Kr     1.8665660262    -1.5448894730     4.4229327175
          2
Energy: -0.2387938025018041 Kcal/mole
 Kr    -4.2512674494     3.0718080426    -1.9520958604
 Kr    -2.6093048071    -1.1598392354    -1.5056211375
          2
Energy: -0.31685707710116723 Kcal/mole
 Kr     2.4400162951    -3.0831970500     5.2543551866
 Kr     5.4930147807    -0.4780744391     5.8236243208
          2
Energy: -0.3169999998836218 Kcal/mole
 Kr     2.5048507171    -3.1465114012     5.1750111393
 Kr     5.5054950715    -0.4908311661     5.8754340218
