          2
Energy: -0.31699999987367206 Kcal/mole
 Kr     5.1050607026     2.5839542555    -1.7620304086
 Kr     1.5647893331     3.1095416113     0.1711893489
