          2
Energy: -0.31699999988546923 Kcal/mole
 Kr    -3.2585724636    -2.5092776321    -5.0569722442
 Kr    -0.3475755848    -5.0140872880    -6.3982270210
