          2
Energy: -0.2770896348902473 Kcal/mole
 Kr     5.8906645352    -4.2719600724    -2.5608326793
 Kr     6.5747300631    -0.8601531512     0.0927038851
          2
Energy: -0.0015677903851056833 Kcal/mole
 Kr    -4.2901349077     0.4748571230    -2.9390850953
 Kr     5.3394903795     5.5985523959    -4.7643226103
          2
Energy: -0.0031092931356258677 Kcal/mole
 Kr     6.0402052101    -4.0101454933    -1.9689590781
 Kr    -3.2292564130    -7.1438076715    -0.7157093344
          2
Energy: -0.05671963261652086 Kcal/mole
 Kr    -5.4724323783    -0.8540230878    -1.8752305387
 Kr    -0.3271025204     0.4866698912    -4.7278512262
          2
Energy: -0.2955163349128809 Kcal/mole
 Kr     0.3950632798    -7.4491424784     2.3336026457
 Kr     0.7957613641    -5.0840717300     5.8751591837
          2
Energy: -0.30071113461995475 Kcal/mole
 Kr    -4.6783433516    -3.1017344065    -2.7544747815
 Kr    -7.4662468969    -2.1296874880     0.2967769959
          2
Energy: -0.3166786888470506 Kcal/mole
 Kr    -2.2093578136     3.9209080077     0.8440821943
 Kr    -0.1099968054     7.3089431409    -0.0726200514
          2
Energy: -0.289104125047993 Kcal/mole
 Kr     7.3698971846    -4.8534351363    -0.6701939418
 Kr     4.0483786577    -6.1584495350     1.7527869331
          2
Energy: -0.311119112153047 Kcal/mole
 Kr     5.2003132757     2.6441633740    -1.7897202638
 Kr     1.4162248436     3.3371433430    -0.1850071335
          2
Energy: -0.31699999987367206 Kcal/mole
 Kr     5.1050607026     2.5839542555    -1.7620304086
 Kr     1.5647893331     3.1095416113     0.1711893489
