          2
Energy: -0.3169999998836218 Kcal/mole
 Kr     2.5048507171    -3.1465114012     5.1750111393
 Kr     5.5054950715    -0.4908311661     5.8754340218
