          8
Energy: -28.435202970096697 Kcal/mole
 H     -1.7668708651    -4.4368815303     2.0993556340
 F     -1.1302152819    -3.8843907895     1.7383671998
 H     -3.3360772088    -2.0438912956     3.3636432031
 F     -3.8453785768    -2.6177790031     3.8657925988
 H     -3.5271141069    -4.2459173262     3.2658968993
 F     -3.1243855551    -4.9770412235     2.8862173496
 H     -1.5397592762    -2.2961496247     2.0676040728
 F     -1.9765477031    -1.5556771772     2.3866736962
          8
Energy: -27.615439965379323 Kcal/mole
 H     -4.2779919286    -6.1107883111     1.2794767950
 F     -3.4145447558    -6.1670141489     0.9758542746
 H     -3.1530808064    -4.4159069288     3.7291556875
 F     -3.9131771420    -4.5293811633     4.2294217753
 H     -5.2209637366    -5.3033027277     3.2441892184
 F     -5.5087344032    -5.6753009880     2.4569825506
 H     -2.4046200943    -5.0534107356     1.8395124579
 F     -1.9738056708    -4.4637647268     2.3941344164
          8
Energy: -28.22181664548495 Kcal/mole
 H     -3.5134168609    -6.1513355613     2.8586312372
 F     -2.6124232419    -6.0524419682     2.9976260416
 H     -4.2657321241    -3.5322284476     4.5589515396
 F     -5.1680904664    -3.5691090037     4.3999601986
 H     -5.3165775775    -4.9040848173     3.3822333441
 F     -5.2205583639    -5.6323816053     2.8333680608
 H     -2.3607262885    -4.7352322855     4.1141166815
 F     -2.5988885228    -4.0457845403     4.6698410348
          8
Energy: -28.387766067807377 Kcal/mole
 H     -3.4143232066    -4.5111803762     3.3299592591
 F     -3.3178727873    -4.1295616592     4.1581823398
 H     -6.3635564062    -5.0295360315     3.9150868591
 F     -6.4905657037    -5.4714605700     3.1217014921
 H     -4.9679829333    -5.3630475185     2.2688082069
 F     -4.0920301221    -5.2236648478     2.0360676996
 H     -4.8305910526    -4.0009162319     5.0487207592
 F     -5.7354073740    -4.0746659799     5.1781711324
          8
Energy: -28.204676893217936 Kcal/mole
 H     -3.1533176692    -5.8067194416     2.0931461076
 F     -2.5008273028    -5.7574122024     2.7355744055
 H     -5.1978507650    -4.4875281024     3.9720474149
 F     -5.7682858414    -4.2895215952     3.2819124667
 H     -5.1058670010    -5.1461086692     1.9036738877
 F     -4.5741262289    -5.6901068224     1.3916126017
 H     -3.2587129353    -5.2766941833     4.1116361525
 F     -3.8428219998    -5.0009005711     4.7625151614
          8
Energy: -27.869669876021078 Kcal/mole
 H     -4.8511063745    -4.6433822965    -0.9031328550
 F     -3.9851048695    -4.6952663394    -0.6060832980
 H     -5.8133685051    -4.1919877723     2.0565804894
 F     -6.7149807384    -4.2067761786     1.8899501083
 H     -6.7095974626    -4.4727354678     0.2794033606
 F     -6.4876532568    -4.5349642403    -0.6081535950
 H     -3.8317416803    -4.4481708077     1.1525698483
 F     -4.0968033902    -4.3341931813     2.0229952561
          8
Energy: -27.95589728638066 Kcal/mole
 H     -5.3380078570    -4.8518670359    -0.7035404315
 F     -4.5575187170    -4.3812632966    -0.6022595204
 H     -5.1052225042    -5.9359712483     1.9953614194
 F     -6.0100780523    -6.0833637602     1.9753393199
 H     -6.8700410125    -5.8465799295     0.4186494595
 F     -6.8577827685    -5.6397603787    -0.4746390767
 H     -3.7066139990    -4.9466270167     0.8434878138
 F     -3.5703873379    -5.4464031321     1.6001615422
          8
Energy: -28.099342250060374 Kcal/mole
 H     -4.5092880314    -5.8436409604    -0.0113841610
 F     -3.8801194808    -6.3646901184     0.4052016164
 H     -6.1585925363    -6.0957095081     2.5495825622
 F     -6.9263159743    -5.7838246699     2.1568771123
 H     -6.5262446094    -5.2761813631     0.6025721844
 F     -5.9979840095    -4.9861071111    -0.0885766179
 H     -4.0592243832    -6.6024863486     2.0874394765
 F     -4.5318651260    -6.6304162294     2.8727544770
          8
Energy: -28.35781918330153 Kcal/mole
 H     -5.0520140331    -5.9271269739     0.3123067293
 F     -4.4607483175    -6.5234433858     0.6806823398
 H     -6.7916885345    -6.0153559998     2.6877316211
 F     -7.3456789060    -5.4123153576     2.2750263363
 H     -6.7122393932    -4.8465406330     0.8198711131
 F     -6.2311700210    -4.7705594149     0.0428974240
 H     -4.9205819883    -7.0830031369     2.2532561736
 F     -5.5047660384    -7.1648168832     2.9553419992
          8
Energy: -28.348364520959848 Kcal/mole
 H     -6.1902086071    -2.9987233912     0.4307530421
 F     -6.0740612144    -2.3746392832     1.0925066287
 H     -6.1203505429    -5.4865467461     2.2110923288
 F     -6.3528763130    -6.0911689445     1.5620524507
 H     -6.3554251101    -5.1654491650     0.0684202208
 F     -6.4142876784    -4.4242593948    -0.4682937837
 H     -5.8771678948    -3.2651493569     2.5152266084
 F     -5.9058669667    -4.0074716142     3.0528352297
          8
Energy: -28.405450440803662 Kcal/mole
 H     -4.4438334252    -3.3271440058    -0.4066970156
 F     -4.2406255662    -2.4352243417    -0.3428622368
 H     -5.0307788425    -3.3842206434     2.4663580715
 F     -5.1808871508    -4.2864836820     2.4009523763
 H     -5.1872096704    -4.9047781935     0.8155002804
 F     -4.9813855189    -4.9426738607    -0.0772983179
 H     -4.3469171527    -1.8244018826     1.2837612626
 F     -4.5832155805    -1.8324432363     2.1697564035
          8
Energy: -28.348999829912486 Kcal/mole
 H     -4.6519471207    -4.0948022868    -0.4569925716
 F     -4.9157961406    -3.2530807665    -0.2064380326
 H     -4.1859375807    -4.9583975617     2.4513519999
 F     -3.9453745476    -5.8168761784     2.2367992281
 H     -4.1224760694    -6.0486670003     0.5567097268
 F     -4.3082515738    -5.7590489665    -0.2932890123
 H     -4.9497237141    -3.1183211275     1.4750886457
 F     -4.8200353634    -3.3365614603     2.3562475921
          8
Energy: -28.14742707146445 Kcal/mole
 H     -5.1691830790    -5.2780344328    -0.8942641088
 F     -6.0375091003    -5.1462764926    -1.1579661491
 H     -5.6882876619    -5.7931773456     2.0280156773
 F     -4.8723256706    -6.1760383305     2.1968721104
 H     -3.9763369873    -5.9556482695     0.7962101099
 F     -3.8268502392    -5.7517220867    -0.0852414339
 H     -6.8819607488    -5.2188636991     0.3102015375
 F     -7.0747464193    -5.3980000287     1.1886278923
          8
Energy: -28.501552508388357 Kcal/mole
 H     -6.3529455886    -5.4337427180    -1.7346545598
 F     -6.5607537371    -4.5447819441    -1.8209883062
 H     -4.3012302019    -4.6456716991     0.3001067054
 F     -3.9481786762    -5.4901323709     0.2441621443
 H     -4.9930903078    -6.5538241755    -0.6486526754
 F     -5.6785624754    -6.8149466051    -1.1989543965
 H     -5.9073502669    -3.6814540711    -0.5749929652
 F     -5.3932943750    -3.3618255730     0.1138271588
          8
Energy: -28.30327304042723 Kcal/mole
 H     -4.2330228374    -4.2485478356    -2.0229250570
 F     -4.7708244015    -3.5603349557    -2.3022483635
 H     -5.9193493430    -5.0505152341     0.3706713737
 F     -5.3687485616    -5.6980484901     0.7148057397
 H     -4.0733026930    -5.6617319683    -0.3461410328
 F     -3.5439229335    -5.5495377657    -1.0864507864
 H     -5.9574426733    -3.5037102067    -1.2298229375
 F     -6.5387406352    -3.7202034745    -0.5544620381
          8
Energy: -28.60597222038163 Kcal/mole
 H     -3.6655312777    -3.9056377666    -2.5886495336
 F     -3.9029386740    -4.0817743313    -3.4566948312
 H     -6.4393015521    -5.1415874712    -1.6509922519
 F     -6.3097901606    -4.9254970229    -0.7692776055
 H     -4.7528348735    -4.3317847217    -0.6265762699
 F     -3.9148296821    -4.0368705871    -0.8538689280
 H     -5.3585003309    -4.9117245570    -3.5030537357
 F     -6.1709810865    -5.2890206342    -3.3070647259
          8
Energy: -28.433333175855836 Kcal/mole
 H     -5.3248267049    -4.0574831267    -3.0902006787
 F     -5.7043651402    -4.3398847975    -3.8757507232
 H     -3.6283290562    -6.5679396717    -2.7904198936
 F     -3.3419092477    -6.3870198359    -1.9382927280
 H     -3.9507201326    -4.8457760838    -1.6220416291
 F     -4.3261807350    -4.0174550235    -1.7395259135
 H     -4.7748656982    -5.7402538624    -4.3958720461
 F     -4.2757592732    -6.5086692825    -4.3595468670
          8
Energy: -28.481530497691182 Kcal/mole
 H     -4.5517868239    -2.3938165795    -3.3678591418
 F     -5.1884439311    -2.8003863315    -3.8877223590
 H     -3.5785676514    -5.0278557049    -2.1547927176
 F     -2.8616022644    -4.6864782563    -1.6961958671
 H     -2.9812303174    -2.9832329855    -1.9327561175
 F     -3.2606311880    -2.1622213121    -2.2306889716
 H     -5.0700558417    -4.4621723649    -3.6978395270
 F     -4.8340402434    -5.2553394193    -3.3027804668
          8
Energy: -28.619132717994546 Kcal/mole
 H     -5.4438257532    -3.1381685014    -4.5822779321
 F     -5.4628442489    -3.6701588440    -5.3289462468
 H     -2.5988306077    -3.8105680695    -4.0847268262
 F     -2.5862836972    -3.3464343676    -3.2939604373
 H     -4.0649952402    -2.5549333580    -3.0323968845
 F     -4.9458307411    -2.3333436748    -3.1585548519
 H     -3.9289594774    -4.2561532660    -5.5297440726
 F     -3.0411364218    -4.4784973612    -5.4729785432
          8
Energy: -28.623984150280563 Kcal/mole
 H     -3.5021033447    -2.8751879675    -6.5402506430
 F     -3.7003110280    -3.6550663335    -6.9800147258
 H     -3.1364343552    -4.2493733814    -3.9787106580
 F     -2.9247831853    -3.4830969823    -3.5216403545
 H     -2.9193059330    -2.2446117217    -4.5804091503
 F     -2.9546222341    -1.8078236677    -5.3859263474
 H     -3.6324051907    -4.9592185429    -5.8979890162
 F     -3.5334587989    -5.4019628946    -5.1010724267
          8
Energy: -28.47831976241386 Kcal/mole
 H     -5.3541397871    -4.6914391158    -6.9641567722
 F     -5.2807322294    -5.5462309645    -7.2879332783
 H     -3.0376205679    -5.1798953657    -5.2069289739
 F     -3.2623215467    -4.4557047232    -4.6912290772
 H     -4.5563924348    -3.5919711689    -5.3967083972
 F     -5.2322911323    -3.3375743384    -5.9618032596
 H     -3.7809880858    -6.2100386615    -6.7943620631
 F     -3.0224383890    -6.3936401222    -6.3129247762
          8
Energy: -28.285567437058774 Kcal/mole
 H     -2.5000204976    -5.4062799412    -5.3245151954
 F     -2.7078584540    -6.2937136776    -5.4252810002
 H     -4.8826782185    -4.9129001422    -3.8454483259
 F     -4.6379356352    -4.0575775892    -3.6231570796
 H     -3.1818504533    -3.5738919309    -4.4583194385
 F     -2.4274608929    -3.8083684905    -4.9239438947
 H     -4.1363098811    -6.5998288847    -4.7422976640
 F     -4.9453013955    -6.5070668172    -4.3206142182
          8
Energy: -28.453466989409918 Kcal/mole
 H     -1.6344401582    -5.1806945497    -5.2115949892
 F     -1.6278314613    -5.8812092747    -5.8033081336
 H     -4.6461347153    -4.4438428131    -5.8842123965
 F     -4.6712430660    -3.6885483532    -5.3648003736
 H     -3.2032119670    -3.6933589498    -4.4202521623
 F     -2.3315069126    -3.8965613366    -4.2209331011
 H     -3.1386525333    -5.9585637641    -6.4308178842
 F     -4.0279641737    -5.8388630971    -6.6197240951
          8
Energy: -28.732759261169292 Kcal/mole
 H     -0.6893678963    -4.8190941742    -6.3744206860
 F     -0.7508247791    -5.6381409153    -6.7821883740
 H     -3.7122639871    -4.6191814327    -6.4516923416
 F     -3.7318662605    -3.8501130101    -5.9526547556
 H     -2.1673237114    -3.3999340262    -5.6164413493
 F     -1.2505848530    -3.3829696764    -5.6302643805
 H     -2.3277993220    -5.9576676400    -7.2246325366
 F     -3.2430984094    -5.9486659956    -7.2797283715
          8
Energy: -28.576582670888712 Kcal/mole
 H     -0.8291300897    -3.8685779580    -6.1492502690
 F     -0.5994187312    -4.3701099546    -5.4167290419
 H     -3.4867678051    -5.2065156278    -6.2758146046
 F     -3.6871307001    -4.7862995623    -7.0658539509
 H     -2.4309425174    -3.6457203090    -7.3795672479
 F     -1.6409824957    -3.1818005446    -7.4199481373
 H     -1.8838595274    -5.3346176920    -4.8674147601
 F     -2.7199437564    -5.7107858053    -4.8487141548
          8
Energy: -28.66432428373298 Kcal/mole
 H     -0.9286415575    -4.4095263049    -6.4199264394
 F     -0.6685041030    -5.2693040966    -6.6043163892
 H     -3.6216565774    -5.2764375692    -5.5877973375
 F     -3.8006928893    -4.4974629189    -5.1383159773
 H     -2.6276750941    -3.4088736371    -5.5931357984
 F     -1.8460879464    -3.0808832945    -5.9430398791
 H     -2.0283241767    -6.2474146222    -6.5755189815
 F     -2.8930940977    -6.4931657174    -6.3947750111
          8
Energy: -28.601090184323965 Kcal/mole
 H     -2.2215793374    -5.2227309584    -6.0322103284
 F     -1.8244898522    -6.0110873394    -6.2806115309
 H     -1.8206031497    -6.0210720605    -3.2043418485
 F     -2.4197449146    -5.3690155680    -2.9661392535
 H     -2.9009480273    -4.3793576171    -4.2555191886
 F     -2.9801376016    -4.0797068623    -5.1185530445
 H     -1.1740088110    -6.8736559164    -4.9687169129
 F     -0.9074023331    -7.1001265634    -4.1210607138
          8
Energy: -28.50580078109772 Kcal/mole
 H     -1.7545110002    -6.6995311680    -5.5920774377
 F     -1.0766552713    -7.0763738296    -6.0813526354
 H      0.1773504935    -5.1264405128    -3.7265859745
 F     -0.4649347559    -4.8464874242    -3.1349907357
 H     -1.9455045469    -5.4323219963    -3.7523924473
 F     -2.5836316156    -5.7806696029    -4.3112634424
 H      0.3439185329    -6.3525305754    -5.4661287363
 F      0.9536356881    -5.8646777620    -4.9853651529
          8
Energy: -28.465905058883124 Kcal/mole
 H     -1.5151750081    -6.2366637235    -6.1707431620
 F     -0.8746082726    -6.7321589649    -6.6009148987
 H      0.5483001291    -4.0723713503    -5.4820649653
 F     -0.1260605121    -3.6477591966    -5.0283786812
 H     -1.5719617269    -4.4311951540    -5.2748443516
 F     -2.2868279821    -4.9737759661    -5.4631560599
 H      0.6024793977    -5.9745575158    -6.5715030626
 F      1.2369684117    -5.3316630780    -6.4133909729
          8
Energy: -28.586215966374 Kcal/mole
 H     -1.1074559047    -5.5146185212    -7.4623333149
 F     -0.8077591486    -6.3800224389    -7.4159985160
 H     -0.1863427480    -4.8203102034    -4.5659173414
 F     -0.6498145906    -4.0293841612    -4.5431391307
 H     -1.2571033624    -3.8372376250    -6.1032136989
 F     -1.5386817260    -3.9357181600    -6.9703378015
 H      0.0975251396    -6.4157828401    -6.0444180613
 F      0.4407097462    -6.2716140838    -5.2063675285
          8
Energy: -28.657641449531184 Kcal/mole
 H     -0.1003187300    -6.3491335629    -6.9918736821
 F      0.7691009297    -6.6037234246    -6.8498087050
 H     -0.3565481572    -5.2410359647    -4.1723278012
 F     -1.2056209854    -4.9222341764    -4.3077152165
 H     -1.6509915155    -5.3637962266    -5.8556537719
 F     -1.6438771929    -5.7011090255    -6.7083310040
 H      1.2002029772    -6.3228075314    -5.3079024959
 F      1.1681122907    -5.9822583094    -4.4570879361
          8
Energy: -28.53238550612346 Kcal/mole
 H     -0.5305006518    -7.0762119341    -6.5886953196
 F      0.3671135754    -7.2063110030    -6.7237950292
 H      0.0995650117    -5.9122290231    -3.9179768057
 F     -0.7231985836    -5.5102944235    -3.8690110658
 H     -1.7312722095    -6.1376513719    -5.0880905189
 F     -2.0130093834    -6.6576825092    -5.7888620802
 H      1.2229349795    -7.0104766350    -5.2730368495
 F      1.3842404726    -6.8107938339    -4.3926980983
          8
Energy: -28.69707153873304 Kcal/mole
 H     -1.0705720803    -6.9151261505    -6.1438587384
 F     -0.2314704783    -7.2640169076    -6.2666298315
 H     -0.6043575586    -6.5408638657    -3.1102023393
 F     -1.4261942132    -6.1726947853    -2.9372137806
 H     -2.1943911329    -6.1020339640    -4.4466825438
 F     -2.3429838273    -6.2108684624    -5.3449944402
 H      0.5111702989    -7.3963796769    -4.7436832533
 F      0.7125294769    -7.2780244565    -3.8569276369
          8
Energy: -28.63685230141226 Kcal/mole
 H     -0.0733951994    -5.2883158553    -5.9011361091
 F      0.8396934348    -5.2381883125    -5.8329791163
 H     -0.3765259177    -6.2255768559    -3.0158425959
 F     -1.2923975565    -6.2693166932    -3.0282911982
 H     -1.6998645054    -5.7339993967    -4.5440920597
 F     -1.6380357660    -5.5186983359    -5.4333117514
 H      1.2463419083    -5.7421505015    -4.2894748028
 F      1.2511315930    -6.0322235327    -3.4195761331
          8
Energy: -28.40482996835513 Kcal/mole
 H      0.0113182120    -4.9182333304    -5.0883631233
 F      0.7466575024    -5.1598589520    -5.5800766445
 H      0.1587511718    -7.1948207214    -3.1196654870
 F     -0.6472501632    -6.9659244851    -2.7470297922
 H     -1.1631743321    -5.5550236193    -3.3668567431
 F     -1.2302000674    -4.8120294724    -3.9001073863
 H      1.4117891666    -6.4631240683    -4.7588466844
 F      1.4631275300    -7.1050788343    -4.1060469825
          8
Energy: -28.653127012540864 Kcal/mole
 H      1.2574962859    -4.2088862040    -4.4553523957
 F      1.7328348740    -4.6362442976    -5.1128531840
 H      0.2781841540    -6.7882454224    -3.3270141615
 F     -0.1587899592    -6.3794861839    -2.6321339493
 H     -0.1237209545    -4.6996952171    -2.9051363096
 F      0.1676311617    -3.8853122290    -3.2097398109
 H      1.4407655438    -6.3055810018    -5.0319518092
 F      1.0591726284    -7.0907225719    -4.7511875633
          8
Energy: -28.651383778305018 Kcal/mole
 H      0.6736715203    -4.7489867785    -4.4586912155
 F      1.3772715362    -5.0147705139    -4.9832815543
 H      0.4718579586    -7.4853342281    -3.0597250859
 F     -0.0368011582    -7.1181725762    -2.3908848776
 H     -0.4852763933    -5.5317433625    -2.8235133705
 F     -0.5110278013    -4.7243040541    -3.2574115478
 H      1.5733949969    -6.6187567009    -4.7464351249
 F      1.5003837143    -7.4894609516    -4.4681682378
          8
Energy: -28.7196456624541 Kcal/mole
 H      1.4976888102    -5.2181105889    -4.4323555601
 F      2.4060755580    -5.1938587542    -4.3093337535
 H      0.8873576101    -7.2243354210    -2.2092989949
 F     -0.0207040935    -7.2585348691    -2.3323572750
 H     -0.2854372719    -6.3087024920    -3.7005470753
 F     -0.1502684410    -5.7162818620    -4.3873193697
 H      2.6741731745    -6.2857446339    -3.0550127554
 F      2.5468470970    -6.9080308614    -2.3936226126
          8
Energy: -28.457086448727466 Kcal/mole
 H      0.8868854287    -4.3444414578    -3.7516272142
 F      1.7806977221    -4.2675446409    -3.5616917946
 H      0.8773320581    -6.9951755858    -2.1955957056
 F     -0.0390583683    -6.9707217491    -2.1728010484
 H     -0.6338995595    -5.6733037466    -3.0907188325
 F     -0.6711756053    -4.9425789460    -3.6434762497
 H      2.3231814729    -5.7158343370    -2.9500727031
 F      2.4711661566    -6.5659561186    -2.6397785041
          8
Energy: -28.48231412974414 Kcal/mole
 H      0.7123455637    -3.8871102682    -3.4030835557
 F      1.4633718961    -3.5145070819    -3.0315794325
 H      0.5548675320    -6.0875573276    -1.2697456775
 F     -0.2213235166    -6.4544135236    -1.5919769416
 H     -0.5966183262    -5.6854087135    -3.0590939974
 F     -0.6001996189    -4.9871973418    -3.6535492562
 H      1.9281103599    -4.4644902979    -1.7077704509
 F      1.8794339658    -5.0842092422    -1.0336280039
          8
Energy: -28.662676030649124 Kcal/mole
 H      0.1911474711    -3.5737140727    -2.6095206779
 F      1.0369908992    -3.2788498478    -2.4133243883
 H      0.1579656019    -5.7809462047    -0.5352156807
 F     -0.6505786986    -6.0941997866    -0.8335733646
 H     -1.2212349526    -5.0617209467    -2.0126490250
 F     -1.2827318615    -4.3628573877    -2.6031546185
 H      1.5020702465    -4.2063365871    -1.1049111351
 F      1.5704132492    -4.9031880192    -0.5127825041
          8
Energy: -28.72367315421417 Kcal/mole
 H      0.5169349267    -4.1608358668    -3.1632418050
 F      1.3845073952    -4.3165458253    -3.4161477572
 H      0.5293307274    -5.8803078989    -0.7237261206
 F     -0.3781094000    -5.8165602457    -0.6080643211
 H     -0.9525609337    -4.6805973971    -1.6745983000
 F     -0.9747391404    -4.0764344315    -2.3640794369
 H      2.0463518198    -5.1978315140    -2.1436836349
 F      2.1012950419    -5.7090173109    -1.3843685992
          8
Energy: -28.660749000070552 Kcal/mole
 H      0.7058018300    -4.1198478094    -3.4368372242
 F      1.5900388542    -3.8963307456    -3.3416846771
 H      0.5551370519    -5.8073551511    -0.9640681908
 F     -0.3433445496    -5.9859571782    -1.0055546661
 H     -0.8433737771    -5.1979834695    -2.4020421787
 F     -0.7818344350    -4.7549052008    -3.2025317521
 H      2.1394434593    -4.7455064650    -2.0177507637
 F      2.1530493113    -5.3216055740    -1.3044389824
          8
Energy: -28.862370560312655 Kcal/mole
 H      0.5766630955    -3.9671521547    -3.1331443702
 F      1.2750249235    -3.4083088771    -2.9309713051
 H      0.5302372374    -5.1134247642    -0.3189459719
 F     -0.1262587423    -5.7157303444    -0.5360404599
 H     -0.5653648519    -5.4532552988    -2.1498113947
 F     -0.6300883879    -5.1061729707    -2.9961173213
 H      1.6721637674    -3.6069223485    -1.3274391713
 F      1.6521565663    -3.8922583576    -0.4561917473
          8
Energy: -28.81289254905022 Kcal/mole
 H      0.7703512598    -4.2143774425    -3.0727445066
 F      1.5322219088    -3.7104509259    -2.9921208124
 H      1.1793900795    -5.6025567825    -0.4054967796
 F      0.4785349171    -6.1809671317    -0.5285110445
 H     -0.2461809155    -5.7717404726    -1.9550090252
 F     -0.4259049654    -5.3386923213    -2.7430810807
 H      2.2045207242    -4.0510466212    -1.4468159911
 F      2.3531954060    -4.4299829716    -0.6251152661
          8
Energy: -28.711282144577353 Kcal/mole
 H      1.0982768658    -4.1948565487    -3.2225668081
 F      1.8311231656    -3.6542346533    -3.1150806833
 H      1.5999573136    -5.5442413928    -0.6897424639
 F      1.0014104346    -6.2036665966    -0.9083494954
 H      0.1067679635    -5.7174551831    -2.2770807741
 F     -0.1149971629    -5.2656670394    -3.0436293386
 H      2.4139689856    -3.8312908482    -1.5640179294
 F      2.5438659305    -4.1698888880    -0.7217785625
          8
Energy: -28.847109940775596 Kcal/mole
 H      0.9839242924    -4.1842275337    -2.7628156844
 F      1.8774880216    -4.0761086572    -2.9381529890
 H      1.3635758160    -5.6173592669    -0.1119626619
 F      0.4681111207    -5.7923817973    -0.0203160950
 H     -0.2794847508    -5.0650068481    -1.2888105442
 F     -0.4703510138    -4.5981538746    -2.0546482364
 H      2.6738877936    -4.6353998647    -1.5830722731
 F      2.8166719545    -5.0097046639    -0.7582101024
          8
Energy: -28.812253879054595 Kcal/mole
 H      0.8188297052    -4.5490331278    -2.7717582340
 F      1.6792817367    -4.7673349257    -3.0016617496
 H      0.9087796436    -6.1641182283    -0.2265262266
 F      0.0785950457    -5.8795585282     0.0393841161
 H     -0.5076177621    -4.9009132917    -1.1718524400
 F     -0.6256715312    -4.4189421108    -1.9429919140
 H      2.2556898505    -5.9056770683    -1.8813473319
 F      2.3132963168    -6.3819728860    -1.0998661811
          8
Energy: -28.743603798147177 Kcal/mole
 H      0.8833767427    -4.7418197797    -3.1142303067
 F      1.7751103461    -4.8714214161    -3.2842408841
 H      1.0306032537    -5.9943288306    -0.3667706655
 F      0.1741652374    -5.7343480252    -0.1672389514
 H     -0.5067536952    -4.9954701687    -1.4932946992
 F     -0.5764156712    -4.6184854968    -2.3263125659
 H      2.3425440549    -5.7776036340    -2.0361398519
 F      2.4709734460    -6.2125395040    -1.2391293873
          8
Energy: -28.884948005886514 Kcal/mole
 H      0.7104237355    -5.4058340564    -3.2573025978
 F      1.6110493777    -5.5176494841    -3.3886790137
 H      0.9649730320    -6.1492112579    -0.2973059666
 F      0.0837603275    -5.9791710236    -0.1090521803
 H     -0.6159307280    -5.5251166795    -1.5576348978
 F     -0.7688209774    -5.3279325218    -2.4400361555
 H      2.2933138015    -6.0533535598    -1.9580675783
 F      2.4245360107    -6.3060360887    -1.0863903035
          8
Energy: -28.790757567414317 Kcal/mole
 H      0.9606175879    -5.2637429947    -3.2883935230
 F      1.8024124027    -5.5989424305    -3.4295027999
 H      0.9474991747    -5.8716659968    -0.3625186551
 F      0.1050303314    -5.5484177239    -0.1992832358
 H     -0.4905580327    -4.9856465605    -1.6955529577
 F     -0.4935095096    -4.8123020186    -2.5960150383
 H      2.3007921981    -6.1736248955    -1.9489935451
 F      2.3771778509    -6.4019162219    -1.0641561011
          8
Energy: -28.829277937730353 Kcal/mole
 H      0.9758373420    -5.4572285330    -3.3226117302
 F      1.8561345557    -5.7025139073    -3.3987753737
 H      1.0074097483    -5.8422592683    -0.2608892695
 F      0.1364988496    -5.5852868676    -0.1329502538
 H     -0.4633606947    -5.2246135301    -1.6838662719
 F     -0.4906285891    -5.0710651678    -2.5875079942
 H      2.3949906389    -6.1141607525    -1.8659806442
 F      2.4450427297    -6.2644574759    -0.9627671129
          8
Energy: -28.84611945314404 Kcal/mole
 H      1.0545646887    -5.4094984987    -3.1517325742
 F      1.8396874578    -5.8633813753    -3.2876059410
 H      0.8755757521    -6.1002234918    -0.2135398917
 F      0.0659318014    -5.6896679961    -0.0838870549
 H     -0.3851330845    -4.9987763799    -1.5890131939
 F     -0.3468648032    -4.7641523455    -2.4746632948
 H      2.3271399865    -6.4280910938    -1.7816388802
 F      2.3191245460    -6.6207748250    -0.8851469770
          8
Energy: -28.88129761732418 Kcal/mole
 H      1.0726900477    -5.3575097720    -3.0777871059
 F      1.8729410226    -5.7965119303    -3.1659034050
 H      0.7679580190    -6.2492926534    -0.2239419146
 F     -0.0134893704    -5.7811470812    -0.1187340208
 H     -0.3866787269    -5.0226253552    -1.5686419016
 F     -0.3583730103    -4.7204496109    -2.4339612680
 H      2.2606914772    -6.5551232494    -1.7237447482
 F      2.1870220327    -6.8632284935    -0.8632024939
          8
Energy: -28.83030058215917 Kcal/mole
 H      1.2519353260    -5.3773355934    -3.0423758111
 F      2.0954676516    -5.7368023526    -3.0535947557
 H      0.6659557111    -6.3663931370    -0.2467858809
 F     -0.1059896817    -5.8812792803    -0.1485318399
 H     -0.3712563541    -5.1830805712    -1.6467167596
 F     -0.2722251261    -4.9036450810    -2.5144711158
 H      2.2925585173    -6.6778460866    -1.6473663786
 F      2.0791460999    -7.0504161665    -0.8370974876
          8
Energy: -28.850797402109407 Kcal/mole
 H      1.1249485253    -5.4667643845    -3.0233346334
 F      1.9309786481    -5.8995538201    -3.0857665604
 H      0.6406708622    -6.3110291398    -0.1120331954
 F     -0.1481155315    -5.8441380592    -0.0852424510
 H     -0.4396220768    -5.1622311578    -1.6086354408
 F     -0.3338752895    -4.8633970815    -2.4691032275
 H      2.2165605202    -6.6056867484    -1.5841514632
 F      2.1163293112    -6.8879574966    -0.7174531711
          8
Energy: -28.90614650414446 Kcal/mole
 H      1.1844163916    -5.4100379463    -2.9714867322
 F      2.0180061404    -5.7914886704    -2.9488488025
 H      0.6614980277    -6.2231054881    -0.0942084452
 F     -0.1831851519    -5.8668233315    -0.1157107946
 H     -0.4450524759    -5.1976862673    -1.6083725593
 F     -0.3484578057    -4.9247828534    -2.4784772636
 H      2.3030346958    -6.4391774805    -1.4301630320
 F      2.2039794201    -6.6914587213    -0.5541315098
          8
Energy: -28.918356203191053 Kcal/mole
 H      1.1399044562    -5.4933164387    -2.9990115558
 F      1.9924810404    -5.8309407444    -3.0024751198
 H      0.6666802266    -6.1634179946    -0.0768160418
 F     -0.1887634609    -5.8332254232    -0.0856457235
 H     -0.4718964488    -5.2412947466    -1.6183378686
 F     -0.3912912317    -5.0167789998    -2.5037668484
 H      2.2939782538    -6.3819557281    -1.4585974028
 F      2.2127781036    -6.5994244690    -0.5714655736
          8
Energy: -28.92680418156013 Kcal/mole
 H      1.1307657479    -5.4913505202    -2.9999815615
 F      1.9826342131    -5.8307668636    -3.0023614348
 H      0.6812260968    -6.1589581302    -0.0826626962
 F     -0.1711241349    -5.8207450612    -0.0827123406
 H     -0.4793319160    -5.2407581900    -1.6189119481
 F     -0.3908967974    -5.0168074629    -2.5037363949
 H      2.3023562924    -6.3876825780    -1.4586708145
 F      2.2083782341    -6.6141754537    -0.5750656415
          8
Energy: -28.930506525398783 Kcal/mole
 H      1.1318683692    -5.4886129887    -2.9982882651
 F      1.9825757216    -5.8309120833    -3.0024512603
 H      0.6822452386    -6.1563720304    -0.0808002504
 F     -0.1711781980    -5.8208822478    -0.0828111390
 H     -0.4806692767    -5.2417460317    -1.6192973706
 F     -0.3908258535    -5.0167550602    -2.5037159491
 H      2.3060916934    -6.3988570227    -1.4577614626
 F      2.2182379937    -6.6164692225    -0.5712990224
