          4
Energy: -0.018720380088652826 Kcal/mole
 Xe    -7.0521901698    -7.1542882674    -4.7024078412
 Xe     7.7692477954     6.4928101921     6.6397901734
 Xe     5.2482585497     0.7910950399    -0.9742360142
 Xe    -6.2784041579     1.7777490793    -1.2424815356
          4
Energy: -1.2711495884947512 Kcal/mole
 Xe    -0.5212910606     1.5894000090    -1.2084920268
 Xe     6.8199665321     2.3775199249    -0.1008708035
 Xe     2.2820717224     3.1946050472     1.8193442655
 Xe    -2.2826426705     6.0770155772    -0.9033510570
          4
Energy: -1.5067903105801 Kcal/mole
 Xe     2.9373079296    -4.2268650067    -6.0284093069
 Xe     2.7012602275    -4.8281593529    -2.0366028284
 Xe    -0.9404300401    -5.9166267784    -3.6540688563
 Xe     4.8412741121    -1.3635957367    -2.3028518073
          4
Energy: -1.519160049297855 Kcal/mole
 Xe     6.0972433003    -5.9829890715    -0.5810318084
 Xe     4.3482269294    -3.8363069930     3.7572635033
 Xe    -0.0063297643    -5.3166579419     3.8735701169
 Xe     2.8256517691    -8.1098391239     5.1115273357
          4
Energy: -2.0859188840335765 Kcal/mole
 Xe     3.3311919233    -3.3958441059    -6.0037937054
 Xe     3.7012043393     1.1265269403    -5.0185616237
 Xe     6.9049123743    -1.3712117320    -2.3488802863
 Xe     2.6561336600    -2.1232615825    -1.4389579993
          4
Energy: -2.1355014711379185 Kcal/mole
 Xe     3.4036176241     3.3919912037    -1.5124939338
 Xe     2.3655141079     4.0360100749    -5.7711288646
 Xe     1.4964098800     0.1916147837    -3.8075047132
 Xe     3.5414401192     0.2910467193    -7.4411097794
          4
Energy: -2.087608444701939 Kcal/mole
 Xe     2.3785228087    -4.9917769239    -3.9280078444
 Xe     3.9881413295    -0.9825937803    -3.1508728253
 Xe    -2.2145407259    -4.1529294054    -5.0854022336
 Xe    -0.1249607252    -1.9986369577    -1.5497506459
          4
Energy: -2.5141884374568515 Kcal/mole
 Xe     0.2366478120    -0.9359704925    -6.1534307264
 Xe    -3.6232362738    -3.2703467112    -5.9875089767
 Xe     0.5923772536    -4.9082794828    -4.4475330287
 Xe    -1.6389709269    -1.8512675072    -2.1831901074
          4
Energy: -2.5176447066002745 Kcal/mole
 Xe    -1.5038681553    -1.7171661560    -4.8610905647
 Xe    -1.5088227940    -3.1882284993    -0.7704362785
 Xe     1.9155061248    -0.8611323506    -2.2186945081
 Xe    -1.7785634211     1.3440867536    -1.9171703405
          4
Energy: -2.5978060726414114 Kcal/mole
 Xe    -1.5038681553    -1.7171661560    -4.8610905647
 Xe    -1.6387496281    -2.9346842904    -0.6053379485
 Xe     1.9149912042    -0.8574001506    -2.1999500620
 Xe    -1.8847528233     1.3424515249    -1.7084846806
