          4
Energy: -0.7688039367981364 Kcal/mole
 Xe    -8.2403694723    -7.3188703260    -0.8325908204
 Xe    -2.1497212768    -7.7410318337     1.2814238334
 Xe    -0.5925740095    -3.3344711665     3.8564031686
 Xe     0.3805101021     0.9717805799     3.5564079584
          4
Energy: -1.8137930016117139 Kcal/mole
 Xe    -3.2108401386    -5.9448658819    -4.1919437868
 Xe     0.1243654486    -6.4701339504    -6.6450369994
 Xe    -2.0826226305    -2.5479327766    -6.3511516767
 Xe    -6.6049863339    -2.3347571531    -4.2214997227
          4
Energy: -1.948923160061427 Kcal/mole
 Xe    -5.5577112406     3.7908874865    -0.1723815726
 Xe    -7.1926879332    -1.0895191774     1.2920840473
 Xe    -5.5748590528     1.5440743446     4.3563717123
 Xe    -3.1424876687    -0.5248030596     1.3082528217
          4
Energy: -2.1271402521150957 Kcal/mole
 Xe    -5.6453322728     4.4722396974    -6.8886463640
 Xe    -3.1598160703     1.9869385236    -4.3338665853
 Xe    -0.7788341106     1.2438728810    -7.8665794888
 Xe    -4.9461976769    -0.4306691046    -7.8573401383
          4
Energy: -2.512774659841769 Kcal/mole
 Xe    -2.4196894865     7.6596218063    -7.7328688530
 Xe    -2.2402136040     7.4478317875    -2.9867244086
 Xe    -3.4052707447     4.0904664088    -5.3972032397
 Xe     0.7272646545     5.6208098839    -5.6152188012
          4
Energy: -2.1815202739415938 Kcal/mole
 Xe     3.9775900804     2.4145676659    -3.1676639843
 Xe     0.0335743960     4.1162587826    -3.9060202170
 Xe     4.3568523223     5.4606785450    -6.8392445755
 Xe     1.4701028576     1.9828307753    -7.1879623019
          4
Energy: -2.440453637767344 Kcal/mole
 Xe     7.2713360800     6.7475577706    -1.7223347960
 Xe     3.2728757283     5.9288737895    -1.9407826268
 Xe     5.2446083954     5.7737034306     2.0710095742
 Xe     6.0192577476     2.5629158577    -0.9204373743
          4
Energy: -2.5587686512248893 Kcal/mole
 Xe     6.1832770460     5.4956606882    -0.9943568119
 Xe     2.3708179639     3.6495814815    -2.2405154391
 Xe     2.8790976617     4.6688923935     2.1252542085
 Xe     5.1187847403     1.2913438366     0.3119071124
          4
Energy: -2.5557327401056615 Kcal/mole
 Xe     3.6958939819     3.1554885077     0.9831756557
 Xe    -0.6996732315     1.9794898655     1.0917216326
 Xe     0.5939677175     5.8937619535     2.3454823710
 Xe     1.4620080669     2.4778405039     4.8769900339
          4
Energy: -2.5976531235747005 Kcal/mole
 Xe     3.6060639453     3.0132616626     1.0142278157
 Xe    -0.6808954868     2.0017210499     1.1078960419
 Xe     0.6647743124     6.0158948824     2.3827371452
 Xe     1.5318950581     2.4760596496     4.8837152910
