          4
Energy: -2.5976531235747005 Kcal/mole
 Xe     3.6060639453     3.0132616626     1.0142278157
 Xe    -0.6808954868     2.0017210499     1.1078960419
 Xe     0.6647743124     6.0158948824     2.3827371452
 Xe     1.5318950581     2.4760596496     4.8837152910
