          4
Energy: -0.05299387940062476 Kcal/mole
 Xe     7.1695696667     4.8003996534     0.9903516631
 Xe     2.2504281766     6.6091857230     7.1593179335
 Xe    -6.9080292160    -1.8134116630    -1.3185776912
 Xe    -7.3013192102     3.0649796590     5.0309100745
          4
Energy: -1.1950448243784226 Kcal/mole
 Xe     5.1189191551     4.6514112481    -7.2092670698
 Xe     2.7467618157    -0.4267109165    -2.1766766959
 Xe     4.3516146047     0.1748397323    -6.4195358141
 Xe    -0.5320641572    -3.3351112209    -5.4234221544
          4
Energy: -0.44575840502006303 Kcal/mole
 Xe    -5.7828691679     2.5649582398    -1.9976469698
 Xe     4.6671007689     5.5411382350     4.6094298367
 Xe    -5.7000340388    -0.6865183836     7.8960585741
 Xe     4.1435472493     1.2673114718     3.4107134971
          4
Energy: -1.0463713431144814 Kcal/mole
 Xe     4.0146097978    -7.4825732591    -8.1563297399
 Xe    -0.6838503021    -2.8703355234    -7.0618519326
 Xe    -3.2491586272    -3.4781450509    -2.2558426131
 Xe    -1.6077565181    -6.8422839046    -5.9352043744
          4
Energy: -0.6830521933559519 Kcal/mole
 Xe     5.5708250354    -7.8692926712     0.9141140802
 Xe     3.0237704907    -1.6778655971    -2.9275928402
 Xe     4.5229334220    -7.4379507853     6.0047485396
 Xe     5.6301032788    -7.8130172849    -4.0692701132
          4
Energy: -2.1049768988485784 Kcal/mole
 Xe     1.8526021056    -5.5482796283    -1.2291327611
 Xe     2.6754902247    -4.3383708909     2.5751579725
 Xe    -2.1550316078    -5.2588145167     1.3374171138
 Xe     0.0454214838    -1.4275067179     0.8737259395
          4
Energy: -1.9689739103940345 Kcal/mole
 Xe    -5.6170297313    -0.1886517434     2.2736575927
 Xe    -5.0943714071    -4.7752341549     0.2620327725
 Xe    -1.7223581172    -1.1353348772     1.0911600213
 Xe    -4.2180804639    -4.3849707886     4.4573967028
          4
Energy: -2.4552623186862967 Kcal/mole
 Xe    -7.9199741485    -5.4815429206    -3.7012534130
 Xe    -3.6021049063    -5.0606433875    -4.4023692764
 Xe    -6.1125736851    -6.5679119290    -7.6040200150
 Xe    -6.3436069501    -1.8559428104    -6.0080776145
          4
Energy: -2.4422881120432276 Kcal/mole
 Xe    -6.4514256935     2.2991422046    -1.4288876814
 Xe    -2.8962157211     0.7216116934     0.7786334343
 Xe    -5.6745795386    -2.3213430037    -0.1966379920
 Xe    -3.2039488778    -0.3398601931    -3.4102237308
          4
Energy: -2.59763435334796 Kcal/mole
 Xe    -6.4705841905     1.7710148097    -1.4663060183
 Xe    -2.8972753233     0.6993867777     0.8998801481
 Xe    -5.7220864168    -2.4406467844    -0.3944404426
 Xe    -3.1458303287    -0.4371186555    -3.3790897888
