          4
Energy: -2.59763435334796 Kcal/mole
 Xe    -6.4705841905     1.7710148097    -1.4663060183
 Xe    -2.8972753233     0.6993867777     0.8998801481
 Xe    -5.7220864168    -2.4406467844    -0.3944404426
 Xe    -3.1458303287    -0.4371186555    -3.3790897888
