          4
Energy: -2.5978532121335 Kcal/mole
 Xe     4.5063892371     6.0961743699    -3.3804913081
 Xe     8.2337168797     4.2665780237    -4.8945034490
 Xe     4.3275353747     2.7486352022    -6.2661387334
 Xe     5.7416012114     6.7301123362    -7.5716313270
