          4
Energy: -0.06285605026672401 Kcal/mole
 Xe    -4.9568398315    -4.6022818734    -4.2744500901
 Xe     3.9446500141     0.2521596994    -3.7863875258
 Xe    -3.6232994449     2.0308815551     0.7265212400
 Xe     3.8889622803     3.0364965875     4.8932403165
