          4
Energy: -2.5978060726414114 Kcal/mole
 Xe    -1.5038681553    -1.7171661560    -4.8610905647
 Xe    -1.6387496281    -2.9346842904    -0.6053379485
 Xe     1.9149912042    -0.8574001506    -2.1999500620
 Xe    -1.8847528233     1.3424515249    -1.7084846806
