          4
Energy: -6.327990212603083 Kcal/mole
 H      1.4502319249    -7.1423584760     2.6739176510
 F      1.1349672757    -6.2931660114     2.8166389143
 H      2.2655659780    -5.0596776529     2.5425421949
 F      2.9919959590    -4.5336381492     2.3515685762
