          4
Energy: -6.327992648795828 Kcal/mole
 H     -0.0741734442    -5.5854616939     4.3236508935
 F      0.4313348425    -5.6016805609     3.5587408855
 H      1.5387214135    -4.3261111824     3.4084045818
 F      2.0686328687    -3.5823561757     3.4915390487
