          4
Energy: -6.327595533546287 Kcal/mole
 H      0.5101512150     3.0580936415     1.1605738468
 F      0.5731027630     2.4087189882     0.5161836993
 H     -0.9138480306     1.8657341549    -0.0798492290
 F     -1.7920215371     1.6957290278    -0.2818357364
