          4
Energy: -6.327990324130212 Kcal/mole
 H      0.0258523538    -5.7599644400     2.9698151081
 F      0.6663917076    -5.7729053649     3.6258874125
 H      1.7506883866    -4.4691861283     3.5906774381
 F      2.2372256211    -3.7099465828     3.4241666815
