          4
Energy: -6.327986319385957 Kcal/mole
 H     -3.2387248293    -0.6110100116    -1.4001273638
 F     -4.0250585887    -0.2064006572    -1.6427371105
 H     -2.0417707116    -1.5346995870     0.2558398610
 F     -1.9270240968    -1.3707019834    -0.6390495179
