          4
Energy: -6.327977740407221 Kcal/mole
 H      1.1501385550    -3.8402612175     2.3735276585
 F      0.8055690987    -3.6687533054     3.2058412568
 H      1.8585276887    -3.9922521479     4.4961600147
 F      2.5460308928    -4.2180852806     5.0593897551
