          4
Energy: -6.162393256583016 Kcal/mole
 H      1.6372614127    -4.8483577881    -4.8613509727
 F      1.0204255687    -4.2087090453    -4.6349618665
 H      3.3500284514    -6.3970548054    -4.2798018376
 F      2.7700251021    -6.1025489930    -4.9261387785
          4
Energy: -5.692694208811588 Kcal/mole
 H      5.5260205045     4.5972081587    -6.3790174541
 F      5.1369597134     4.4955494639    -7.2031449993
 H      5.7757329421     3.9757780008    -4.1837510036
 F      6.3525788936     4.3025914937    -4.8172576644
          4
Energy: -5.98696514142938 Kcal/mole
 H      5.5015687509     5.6697134226    -1.3387842907
 F      4.6889612828     5.3522837165    -1.6212670060
 H      7.4969533766     6.6251463859    -0.0067605483
 F      7.1020237086     6.2130446742    -0.7244594661
          4
Energy: -6.078019030945086 Kcal/mole
 H      1.1292845395     0.4335056849     5.2774312479
 F      0.8187139242     0.3909719002     4.4156738748
 H      1.2873186224    -0.5361940898     3.0604240302
 F      1.6149766680    -1.1831293147     2.4991718408
          4
Energy: -5.610854987836717 Kcal/mole
 H     -5.0173360921    -4.0417408284    -1.0314244049
 F     -4.8707496411    -3.1452101142    -1.1564607636
 H     -4.0971796558    -5.9293285950     0.1037797978
 F     -4.9269844138    -5.7908304155    -0.2610918480
          4
Energy: -5.628212025053557 Kcal/mole
 H     -3.8846708755    -3.9764559441    -0.0962591653
 F     -3.7329285117    -4.7921911488     0.2941756319
 H     -4.0927330716    -6.3140290301     1.3555985668
 F     -4.4254320887    -6.9635287208     1.9108917468
          4
Energy: -5.877017360742286 Kcal/mole
 H     -0.3691612178    -3.8415734808    -6.2365703561
 F     -0.7339571973    -3.0190079183    -6.4132021451
 H      0.8478272844    -2.2562074335    -6.7476433792
 F      1.7577852454    -2.2205626043    -6.8553232537
          4
Energy: -5.90367296082303 Kcal/mole
 H      5.4490945762    -0.5569969851    -5.7394736391
 F      4.7245649894    -0.0679961728    -5.4623020613
 H      5.5734531016    -2.1857193877    -7.2331113841
 F      6.1727032829    -1.7721229055    -6.6756832093
          4
Energy: -6.0825623357658 Kcal/mole
 H      4.3542082870    -5.2980431693     0.3162272296
 F      3.5614866049    -5.7147222799     0.1190982020
 H      6.7551047368    -5.3509546216     0.0940429840
 F      6.1064895303    -4.8000305261     0.4356128230
          4
Energy: -6.138735998127487 Kcal/mole
 H      6.7083096585     3.0778457951     4.5478488678
 F      6.1535321109     2.8144926004     5.2288451729
 H      6.9304152414     3.3823540117     2.2487517796
 F      7.4970064420     3.3791795455     2.9697603331
          4
Energy: -6.045344051295615 Kcal/mole
 H      0.3123975368    -2.3585488014    -6.1403463810
 F      0.0757742322    -3.1108239584    -6.6082999044
 H      0.2639365939    -0.7241392918    -4.6109776236
 F      0.8095546562    -1.0644127055    -5.2647389975
          4
Energy: -5.881038621206102 Kcal/mole
 H     -2.3866212964    -6.4634134239    -0.0555277903
 F     -2.1314118057    -6.2319956907    -0.9053530362
 H     -3.1187060041    -6.0285766294     2.3464649196
 F     -2.9251927130    -6.4905733970     1.5783499589
          4
Energy: -6.058237916544783 Kcal/mole
 H      2.0752975017    -0.0867923758    -0.2577740874
 F      2.8853810658    -0.3959235331     0.0407079835
 H      0.3406252788    -0.5906791431    -1.4893272675
 F      0.4514284551     0.1239242089    -0.9254534293
          4
Energy: -5.910271855753052 Kcal/mole
 H     -1.2169047988    -1.0043461904    -5.0084985280
 F     -2.1125694400    -1.1984879918    -5.0398483499
 H      1.3018445870    -0.8250670804    -5.1528672130
 F      0.4918830320    -0.7615618988    -4.7276397781
          4
Energy: -6.006067522644173 Kcal/mole
 H     -1.3141049555    -4.3258601349    -2.5038599317
 F     -1.4304806961    -3.6515463027    -3.1143077531
 H      0.4975219306    -5.5767975009    -1.5938283699
 F     -0.3990697987    -5.4814442012    -1.4267355240
          4
Energy: -5.6410127249371556 Kcal/mole
 H     -1.4457804791     0.2156321215    -2.4936408624
 F     -0.7533682807    -0.0115267624    -3.0502854428
 H     -2.5000384718     0.9861898553    -0.3537525892
 F     -2.7480639886     0.8133409437    -1.2194867266
          4
Energy: -5.86670718658695 Kcal/mole
 H     -3.2935132472     5.5148421203    -5.2887035741
 F     -3.9674827095     5.4595163726    -5.9080526079
 H     -1.4274483785     4.6486949165    -4.2677359803
 F     -2.1695892624     5.1600336299    -4.0984769225
          4
Energy: -6.00398911642759 Kcal/mole
 H      4.3379240474    -5.1118373664    -0.6418832852
 F      4.6486078178    -4.4852459082    -1.2349665334
 H      2.3844372634    -5.9241923431     0.3595726423
 F      3.2882423656    -5.8964935422     0.5120787530
          4
Energy: -6.110057771111883 Kcal/mole
 H      3.7183865123    -3.4938308391    -4.5194964968
 F      3.5200161655    -2.9321724952    -5.2166895190
 H      4.2452639655    -5.4737718238    -4.1742210188
 F      4.0560410029    -4.8477236878    -3.5314555858
          4
Energy: -6.237956556561585 Kcal/mole
 H      3.9817011944    -4.4937030273    -5.1920417678
 F      4.0212400627    -4.3788332544    -4.2831244926
 H      4.0464082324    -3.6031766637    -7.1455332433
 F      4.0101446381    -4.4684229275    -6.8439990748
          4
Energy: -5.803685917766813 Kcal/mole
 H      4.1195571586    -2.7566115419     0.3961462652
 F      4.9038358118    -3.2235941653     0.4840281385
 H      5.9913100561    -2.2502367067    -0.3373843304
 F      6.3065073877    -1.4445666426    -0.6414162201
          4
Energy: -5.276918143881204 Kcal/mole
 H      4.7449621536     3.1753202757    -2.8522024145
 F      4.1051590876     2.7337562775    -2.3658257373
 H      2.5792039006     3.7950294955    -2.1948778355
 F      1.7558463414     4.1763734078    -2.3273472670
          4
Energy: -6.091451281195418 Kcal/mole
 H     -0.5885207218     5.8110566370     1.1642711059
 F      0.1766157176     5.8451827707     0.6599987232
 H      1.7352655985     6.2296050965     1.0831889919
 F      2.5301487836     6.5593455773     1.3999237980
          4
Energy: -5.784415430995125 Kcal/mole
 H      5.0695328885    -2.0249694509     2.2811224741
 F      4.3082808096    -1.9249632661     2.7825036020
 H      3.9203027405    -3.4278246858     3.6021491442
 F      3.9439269527    -4.1413793337     4.1776234365
          4
Energy: -5.742225240500801 Kcal/mole
 H      3.8081523133    -1.9718811157     1.0033395819
 F      4.4758204560    -1.3585027046     1.1407265392
 H      6.1799244170    -0.9055039203     1.7528864128
 F      6.9859724118    -0.6601140239     2.1147695828
          4
Energy: -5.8556852317772154 Kcal/mole
 H      5.8143513106    -7.1097871565     6.1563415527
 F      4.9126807409    -7.0222104364     6.0141814256
 H      4.4760345862    -5.3541909172     6.0224089826
 F      4.2329351502    -4.4773401365     5.9087235717
          4
Energy: -6.220700233150865 Kcal/mole
 H      2.9283925011     4.2293525670     2.5110521910
 F      2.4829137223     4.7299140024     1.8850522653
 H      3.1646441806     6.3286132147     1.9500923187
 F      3.6213486184     7.0775245462     2.2173784464
          4
Energy: -6.137728706208975 Kcal/mole
 H      3.9881560703     0.5602023300     4.8026600778
 F      3.0933292464     0.6641924160     4.6313124276
 H      1.8136478960     1.4197839861     5.4899131951
 F      1.2242864397     1.9392197998     5.9629126764
          4
Energy: -6.178985717517236 Kcal/mole
 H      2.1250297872     1.4961109703     4.9869857907
 F      1.2544516417     1.3387020690     4.7457283961
 H      0.1514311373     0.6666603525     5.9705689263
 F     -0.2931930891     0.4044083530     6.7284753757
          4
Energy: -6.2865396284551025 Kcal/mole
 H      2.0288299290     5.6815449521     4.8019579049
 F      1.3532409038     6.2167391229     4.4888514236
 H      0.5187374325     6.9533516872     5.7948052895
 F      0.2410074244     7.1782252799     6.6393092326
          4
Energy: -6.229538694701091 Kcal/mole
 H     -0.2776681223     7.0323741638     5.0190969999
 F     -1.0165969097     7.0121860764     4.4764500720
 H     -1.0308891866     7.1538176534     2.7946363588
 F     -0.9621616714     7.1814498132     1.8806330807
          4
Energy: -6.277829881382729 Kcal/mole
 H     -4.9219658406    -0.2366197750     3.2555492685
 F     -4.3330336616    -0.9331986982     3.1616041134
 H     -4.8410827161    -2.2463285104     2.2671926043
 F     -5.2641882184    -2.8410658369     1.7120725755
          4
Energy: -6.2862904504300445 Kcal/mole
 H      0.0215672566    -3.5458646965     2.6537476233
 F     -0.2613487515    -3.5683737906     3.5257228942
 H     -1.5122835696    -4.6170383869     4.0343953443
 F     -2.1461769330    -5.2653456767     4.1713838906
          4
Energy: -6.292340510564941 Kcal/mole
 H     -4.4764128233    -5.4193496203    -0.2583101663
 F     -4.2285296032    -5.4603464107    -1.1402184225
 H     -5.4115241442    -5.9085785244    -2.2239682529
 F     -6.1304653701    -6.1763662700    -2.7262652139
          4
Energy: -6.026894490861537 Kcal/mole
 H      3.1878024070    -6.8850397012    -5.2729220249
 F      3.1582088638    -6.0102453668    -4.9995210470
 H      4.7217777366    -5.5911327949    -4.3184272700
 F      5.5294217379    -5.7825031415    -3.9285842789
          4
Energy: -6.28687294080504 Kcal/mole
 H      0.5832499073     1.4450908344     0.8272212277
 F      0.8626516658     1.1911928945    -0.0084578336
 H      1.4822114750    -0.3863019784    -0.0881070690
 F      1.8516018950    -1.2104462158     0.0707198607
          4
Energy: -6.200756242975899 Kcal/mole
 H      5.0968755256     1.0606990636    -4.5141043602
 F      4.6906562004     1.8364047662    -4.2417892436
 H      4.2889880385     2.4145693494    -2.6416820431
 F      4.1670912062     2.6227431985    -1.7569822008
          4
Energy: -6.097138354902768 Kcal/mole
 H      5.9936165039     7.1810819161    -4.1945731473
 F      5.6052837179     6.3627510842    -4.3374762508
 H      6.3852353059     5.4930404080    -5.6399613702
 F      6.8735104136     5.0604557687    -6.2844355350
          4
Energy: -6.304395616817203 Kcal/mole
 H      3.5501466776     2.7499587190     0.5696259643
 F      4.4145873775     2.8784716789     0.2919288353
 H      4.6912007041     2.1933918488    -1.2086412079
 F      4.6219879319     1.7699110273    -2.0190501084
          4
Energy: -6.199838704901367 Kcal/mole
 H      4.2030730829     1.0473671951    -4.2704794472
 F      4.3833430438     1.8963421267    -3.9744502142
 H      5.7436620379     2.2589328360    -3.0079648699
 F      6.4299402861     2.3758268525    -2.4111006015
          4
Energy: -5.998613152599887 Kcal/mole
 H      4.4847444638     0.3395963937    -3.8162236954
 F      4.5353815499     0.1128772938    -2.9291367013
 H      5.1593186425     0.9732546821    -1.5308538877
 F      5.3470247999     1.6147664039    -0.9030656199
          4
Energy: -6.211680865719927 Kcal/mole
 H      5.2720221346    -1.4482194639    -5.9381892006
 F      4.8561922108    -0.9168584015    -5.3171981412
 H      5.7777728994     0.2937599464    -4.4715594985
 F      6.4422753759     0.8809865588    -4.2381277860
          4
Energy: -6.2190590442946245 Kcal/mole
 H      4.3403818307     3.6409419081    -0.8770899552
 F      4.6359136487     3.5495223535    -1.7403352330
 H      6.2767339748     3.0901822030    -1.9658814570
 F      7.1444018031     2.8621689162    -1.7760091821
          4
Energy: -6.235218511959033 Kcal/mole
 H      5.8390670053     2.8283503128     3.6065049880
 F      6.6535232048     3.2472335521     3.5608220485
 H      7.1646175562     3.5351716117     1.9064312628
 F      7.2578603140     3.6423376072     1.0005006708
          4
Energy: -6.204267140127627 Kcal/mole
 H      5.9954837247    -0.7452168027     1.2988374559
 F      5.6034900558     0.0571164702     1.0902918189
 H      5.5364133501     1.4769479710     2.1019813494
 F      5.4959668692     2.1760874901     2.6939754499
          4
Energy: -6.197292897272121 Kcal/mole
 H      5.2008472699     0.4993112210    -2.9252195665
 F      4.6285079385     0.2736623028    -2.2452201140
 H      3.8278767478    -1.2131311020    -2.2881641933
 F      3.4530066961    -2.0001226903    -2.5727791688
          4
Energy: -6.251364988969101 Kcal/mole
 H      2.7525250458     1.3856756429    -6.2961405189
 F      3.1682882737     1.3814380430    -5.4788205197
 H      4.5492733025     0.3822740600    -5.5600728642
 F      5.1556413489    -0.2462993222    -5.8395407435
          4
Energy: -6.265613121360275 Kcal/mole
 H      0.9099412682     1.1527812962    -6.1774212711
 F      1.7874708217     1.0029509704    -6.3973798041
 H      3.1471628308     1.3834992439    -5.3873701476
 F      3.7638876779     1.6488636034    -4.7627733018
          4
Energy: -6.257066330171256 Kcal/mole
 H      3.2634637657    -1.1127049689    -3.6031917246
 F      3.5876171729    -0.3108226744    -3.2985635013
 H      4.6481921898     0.5040318559    -4.2642993689
 F      5.2545367309     0.8179781878    -4.8764047504
          4
Energy: -6.30037006907645 Kcal/mole
 H      7.3758580535     0.8815508161    -1.5444249490
 F      6.5032138442     0.9870827794    -1.2831892532
 H      5.4029476419    -0.2142061521    -1.8198424994
 F      5.0177195453    -0.9627423458    -2.1834107601
          4
Energy: -6.3138918656784995 Kcal/mole
 H      4.4391368712     0.5788484850     1.2468943473
 F      5.1830184998     0.1780723402     0.8906534114
 H      5.0159316793    -0.4159433829    -0.6647117086
 F      4.7521814194    -0.6940391118    -1.4977708697
          4
Energy: -6.317555418897712 Kcal/mole
 H      4.0634284187    -2.1340830563     0.7482696032
 F      4.9248038506    -2.2545658291     1.0387954488
 H      6.1865795502    -1.9488633941    -0.0470923235
 F      6.7405628109    -1.7656207955    -0.7544915721
          4
Energy: -6.325650910606214 Kcal/mole
 H      3.2387886175    -3.6484830302    -0.5752125771
 F      4.0688509583    -3.2742844242    -0.4663047557
 H      4.5357092140    -2.1141042496    -1.6102513879
 F      4.6409539405    -1.5197024695    -2.3005405094
          4
Energy: -6.317316568991487 Kcal/mole
 H      3.1808920143    -2.4026642692     0.1355488179
 F      3.8638728711    -2.9425999053    -0.1523672432
 H      4.4847205853    -2.5777504101    -1.6845719162
 F      4.7215093212    -2.2204767668    -2.4952356186
          4
Energy: -6.327876408608347 Kcal/mole
 H      3.1823418115    -2.3949989691     0.1242690735
 F      3.8637959627    -2.9430065317    -0.1517688788
 H      4.5022702518    -2.5639537692    -1.6737648960
 F      4.7205783519    -2.2212086467    -2.4958089060
