          4
Energy: -0.5482162000263884 Kcal/mole
 H      1.6592828627     4.8962519293     3.1639509053
 F      2.5762828627     4.8962519293     3.1639509053
 H     -1.4591995779     4.8637723848     2.3392844120
 F     -1.1895188180     3.9873242758     2.3392844120
