          4
Energy: -6.327993310201862 Kcal/mole
 H     -0.1991769219    -5.5213154648     3.6088392573
 F      0.6829468641    -5.7711677881     3.5909383416
 H      1.7853797081    -4.4871753679     3.4841399450
 F      2.2285674121    -3.6864808510     3.4261576245
