          4
Energy: -6.327993102930407 Kcal/mole
 H      0.7421452559    -6.2195107763     4.1983167110
 F      0.7380744016    -5.7763828640     3.3955028587
 H      1.6422530577    -4.3420483094     3.3681210433
 F      2.1677122345    -3.6084067225     3.5310678922
