          4
Energy: -6.327876408608347 Kcal/mole
 H      3.1823418115    -2.3949989691     0.1242690735
 F      3.8637959627    -2.9430065317    -0.1517688788
 H      4.5022702518    -2.5639537692    -1.6737648960
 F      4.7205783519    -2.2212086467    -2.4958089060
