          4
Energy: -6.327989287967455 Kcal/mole
 H     -3.6038476357     3.2634296875    -3.3765364885
 F     -4.0644361042     2.5820858432    -3.7821444624
 H     -4.8213737755     1.5020111530    -2.7170509702
 F     -5.1579913327     1.0270228450    -2.0085569847
