          4
Energy: -6.327727590454742 Kcal/mole
 H     -0.0079790790    -5.7234316080     3.0066443913
 F      0.6681863870    -5.7748433472     3.6239337042
 H      1.7536301651    -4.4743212236     3.5882593037
 F      2.2332681325    -3.7101227727     3.4244388290
          4
Energy: -6.327702452110202 Kcal/mole
 H     -0.0076964991    -5.7080688036     3.0033215138
 F      0.6464326247    -5.7481090570     3.6447268986
 H      1.7477275050    -4.4625489439     3.5959310110
 F      2.2391131973    -3.7082466741     3.4214111347
          4
Energy: -6.327646059336473 Kcal/mole
 H      0.0861977332    -5.7933947286     2.9210130027
 F      0.6414517526    -5.7435827139     3.6490931749
 H      1.7306907768    -4.4476354702     3.6102543811
 F      2.2400169564    -3.7090377994     3.4206513130
          4
Energy: -6.327953822574557 Kcal/mole
 H      0.1176573234    -5.8288259173     2.8827344151
 F      0.6425390960    -5.7509871329     3.6306175935
 H      1.7275576196    -4.4472515982     3.6031660289
 F      2.2401831631    -3.7090581629     3.4210273337
          4
Energy: -6.327766502082056 Kcal/mole
 H      0.1096286387    -5.8164590672     2.8872494099
 F      0.6429649992    -5.7516431657     3.6303780834
 H      1.7301935561    -4.4482923783     3.6063147415
 F      2.2400433328    -3.7090029520     3.4208603018
          4
Energy: -6.327852822990792 Kcal/mole
 H      0.0657748278    -5.7793381948     2.9185167817
 F      0.6452913425    -5.7536123422     3.6287194216
 H      1.7378908038    -4.4551113610     3.5998750221
 F      2.2396350116    -3.7086412207     3.4212019140
          4
Energy: -6.327792711893608 Kcal/mole
 H      0.1914169290    -5.8947846322     2.8456921895
 F      0.6386263194    -5.7474881755     3.6325825979
 H      1.7130565904    -4.4359370641     3.6071854290
 F      2.2409524092    -3.7096583728     3.4208141138
          4
Energy: -6.327404374828859 Kcal/mole
 H      0.2168402211    -5.9108601877     2.8471779268
 F      0.6486021920    -5.7491474790     3.6398440610
 H      1.7149342946    -4.4369564884     3.6085134968
 F      2.2408528014    -3.7096042947     3.4207436629
          4
Energy: -6.32790070474789 Kcal/mole
 H      0.4131302889    -6.0615379504     2.8124735357
 F      0.6381894575    -5.7411543719     3.6416850487
 H      1.6887579858    -4.4106849934     3.6191745394
 F      2.2461838315    -3.7106238226     3.4189751795
          4
Energy: -6.3279037489407415 Kcal/mole
 H      0.2969880837    -5.9765576803     2.8192465333
 F      0.6447038951    -5.7457704084     3.6357757426
 H      1.7054434328    -4.4250525668     3.6140476715
 F      2.2452987070    -3.7098616560     3.4192471480
          4
Energy: -6.327797701377449 Kcal/mole
 H      0.3688542677    -6.0291559238     2.8086953423
 F      0.6408915601    -5.7429801931     3.6363354589
 H      1.6927819539    -4.4153042080     3.6140585903
 F      2.2459703692    -3.7103787840     3.4192465688
          4
Energy: -6.327124773788171 Kcal/mole
 H      0.4470924805    -6.0748905700     2.8184161222
 F      0.6453057482    -5.7409571320     3.6491320541
 H      1.6881619402    -4.4081139636     3.6263515767
 F      2.2462154503    -3.7107602098     3.4185944542
          4
Energy: -6.327926250627684 Kcal/mole
 H      0.4086852762    -6.0649655372     2.8246123199
 F      0.6473431616    -5.7414836321     3.6488033601
 H      1.6902028606    -4.4026676961     3.6150395439
 F      2.2403297543    -3.6981224823     3.4104290786
          4
Energy: -6.327943155824926 Kcal/mole
 H      0.4373268673    -6.0913486390     2.8276482577
 F      0.6458237914    -5.7400840695     3.6486423106
 H      1.6840468563    -4.3985370893     3.6125539720
 F      2.2406563161    -3.6983416014     3.4105609325
          4
Energy: -6.327810045900662 Kcal/mole
 H      0.3467598900    -6.0247656652     2.8302686095
 F      0.6506281603    -5.7436161424     3.6485033070
 H      1.7003530547    -4.4110309921     3.6130771491
 F      2.2397913100    -3.6976788288     3.4105331791
          4
Energy: -6.327734622991954 Kcal/mole
 H      0.1950767359    -5.8917972449     2.8680096968
 F      0.6586746011    -5.7506698099     3.6465012295
 H      1.7274705548    -4.4364996557     3.6088225784
 F      2.2407155102    -3.7030136282     3.4101598913
          4
Energy: -6.327860762002615 Kcal/mole
 H      0.1556903482    -5.8620719940     2.8879927940
 F      0.6607639579    -5.7522466657     3.6454411724
 H      1.7315883766    -4.4405013085     3.6045506478
 F      2.2404970692    -3.7028013497     3.4103865073
          4
Energy: -6.32765185739828 Kcal/mole
 H     -0.0201979878    -5.7117135391     3.0359036995
 F      0.6700944277    -5.7602228343     3.6375948407
 H      1.7612902961    -4.4654750917     3.5820603710
 F      2.2389214510    -3.7014765482     3.4115795645
          4
Energy: -6.327845210763769 Kcal/mole
 H     -0.0541490378    -5.6908259481     3.0808786256
 F      0.6710114919    -5.7632209610     3.6374665957
 H      1.7634995257    -4.4693217052     3.5705409586
 F      2.2388042565    -3.7012724943     3.4121906427
          4
Energy: -6.327374393680373 Kcal/mole
 H     -0.0276694354    -5.6841394432     3.0489206501
 F      0.6696068102    -5.7635756646     3.6391618924
 H      1.7669209564    -4.4692834175     3.5908817289
 F      2.2384338095    -3.6997433720     3.4284848456
          4
Energy: -6.32791726978337 Kcal/mole
 H     -0.0284618483    -5.7068128281     3.0472669024
 F      0.6696488458    -5.7623728940     3.6392496199
 H      1.7609253600    -4.4638908528     3.5896122460
 F      2.2407035788    -3.6988864695     3.4300185299
          4
Energy: -6.327809670550266 Kcal/mole
 H     -0.0081892661    -5.7222715888     3.0230104707
 F      0.6685734322    -5.7615528424     3.6405363676
 H      1.7555609045    -4.4591680890     3.5975279052
 F      2.2371672441    -3.6968241061     3.4308666159
          4
Energy: -6.327489517183835 Kcal/mole
 H     -0.0085736322    -5.7139162444     3.0210677659
 F      0.6591792489    -5.7559668973     3.6481457773
 H      1.7515426546    -4.4560123537     3.6002454402
 F      2.2373804030    -3.6969915105     3.4307224569
          4
Energy: -6.32785413946533 Kcal/mole
 H     -9.37208E-500    -5.7295404104     3.0113349712
 F      0.6587294092    -5.7551380714     3.6486620796
 H      1.7511996206    -4.4557364203     3.6004969991
 F      2.2373986001    -3.6970061482     3.4307091123
          4
Energy: -6.327651277290215 Kcal/mole
 H      0.0664010895    -5.7943548527     2.9594841162
 F      0.6595874515    -5.7551212218     3.6576815540
 H      1.7445253613    -4.4485641764     3.6126776209
 F      2.2377526542    -3.6973866191     3.4300629585
          4
Energy: -6.327690810485535 Kcal/mole
 H      0.0877210922    -5.8026135456     2.9424478723
 F      0.6584564746    -5.7546831172     3.6585852874
 H      1.7406534783    -4.4452115451     3.6159052176
 F      2.2379580486    -3.6975644685     3.4298917419
          4
Energy: -6.327567298675831 Kcal/mole
 H     -0.0362977188    -5.6899289345     3.0509660320
 F      0.6709595110    -5.7628085831     3.6300729027
 H      1.7599398408    -4.4600715944     3.5826205020
 F      2.2353098241    -3.6922382570     3.4234214287
          4
Energy: -6.327874157350607 Kcal/mole
 H     -0.0688811626    -5.6683966133     3.0967634424
 F      0.6726879874    -5.7639508230     3.6276434559
 H      1.7603746491    -4.4628938089     3.5777503013
 F      2.2258723896    -3.6874661280     3.4263806702
          4
Energy: -6.327844073817801 Kcal/mole
 H     -0.0487315271    -5.6885316410     3.0666944173
 F      0.6716190958    -5.7628827063     3.6292385482
 H      1.7540206743    -4.4586151015     3.5799087113
 F      2.2262094533    -3.6876931035     3.4262661715
          4
Energy: -6.3276795693059285 Kcal/mole
 H     -0.0880729240    -5.6587261153     3.1266567365
 F      0.6737060660    -5.7644638206     3.6260576857
 H      1.7635233036    -4.4657903436     3.5724329461
 F      2.2257053607    -3.6873124735     3.4266627436
          4
Energy: -6.327686877684471 Kcal/mole
 H     -0.1170964099    -5.6255818800     3.1794477478
 F      0.6713776776    -5.7621775456     3.6272638233
 H      1.7671902062    -4.4701617870     3.5600416521
 F      2.2255108400    -3.6870805785     3.4273200731
          4
Energy: -6.327810222778169 Kcal/mole
 H     -0.1533599473    -5.5949685983     3.2636118262
 F      0.6733013744    -5.7638015095     3.6227991134
 H      1.7708330665    -4.4743128097     3.5473717403
 F      2.2253175947    -3.6868603764     3.4279921827
          4
Energy: -6.327961202736844 Kcal/mole
 H     -0.1511093996    -5.5876433970     3.2619654451
 F      0.6731819881    -5.7641900945     3.6228864501
 H      1.7708992571    -4.4738139561     3.5508595053
 F      2.2253140835    -3.6868868394     3.4278071648
          4
Energy: -6.327663498859749 Kcal/mole
 H     -0.1168944599    -5.6194093274     3.1810227245
 F      0.6713669646    -5.7625049853     3.6271802744
 H      1.7700650059    -4.4708606094     3.5656848149
 F      2.2253583386    -3.6870435076     3.4270207164
          4
Energy: -6.327993019392181 Kcal/mole
 H     -0.0345885351    -5.6974073323     3.0469710158
 F      0.6670008255    -5.7583673713     3.6342914078
 H      1.7526855058    -4.4567294024     3.5851544942
 F      2.2262802809    -3.6877931355     3.4259878949
          4
Energy: -6.32788879028999 Kcal/mole
 H     -0.0374051586    -5.6905075769     3.0331792505
 F      0.6643849089    -5.7597408848     3.6193417281
 H      1.7539111143    -4.4584929620     3.5801844993
 F      2.2262152652    -3.6876995827     3.4262515416
          4
Energy: -6.32784190525183 Kcal/mole
 H     -0.0567595477    -5.6768057199     3.0590774865
 F      0.6654116146    -5.7604677367     3.6179678866
 H      1.7531370269    -4.4588317251     3.5760522618
 F      2.2262563287    -3.6876816121     3.4264707473
          4
Energy: -6.327840530117783 Kcal/mole
 H      0.0269141659    -5.7597305915     2.9607310950
 F      0.6609729174    -5.7560687639     3.6231849354
 H      1.7393272764    -4.4472517689     3.5902217599
 F      2.2269889041    -3.6882959020     3.4257190881
          4
Energy: -6.327770489576949 Kcal/mole
 H      0.0205881038    -5.7433714784     2.9694646401
 F      0.6673620604    -5.7576468824     3.6193636030
 H      1.7447371987    -4.4516791128     3.5856085651
 F      2.2267019202    -3.6880610417     3.4259638075
          4
Energy: -6.327745046528037 Kcal/mole
 H      0.0408331573    -5.7486806920     2.9498663825
 F      0.6662881071    -5.7573652409     3.6204032453
 H      1.7445135931    -4.4521283015     3.5877262270
 F      2.2322081640    -3.6944563868     3.4175020362
          4
Energy: -6.327387835085631 Kcal/mole
 H      0.0441477732    -5.7682324341     2.9468373903
 F      0.6661122744    -5.7563280661     3.6205639263
 H      1.7453574708    -4.4531834330     3.5854255138
 F      2.2321633982    -3.6944004145     3.4176240837
          4
Energy: -6.327737050547853 Kcal/mole
 H     -0.0530107747    -5.6765690314     3.0586206871
 F      0.6712663109    -5.7611905978     3.6146340807
 H      1.7611154603    -4.4664021297     3.5692150147
 F      2.2313274733    -3.6936991932     3.4184840132
          4
Energy: -6.327754923281304 Kcal/mole
 H     -0.1178107174    -5.6135471989     3.1726789742
 F      0.6747037981    -5.7645337604     3.6085835521
 H      1.7679124475    -4.4730819890     3.5526003044
 F      2.2236491653    -3.6877922415     3.4240971664
          4
Energy: -6.327863936621213 Kcal/mole
 H     -0.1501453909    -5.5909213063     3.2480456298
 F      0.6764190778    -5.7657340117     3.6045855252
 H      1.7757708376    -4.4759610015     3.5376888272
 F      2.2290740635    -3.6870888471     3.4232951679
          4
Energy: -6.327886169580552 Kcal/mole
 H     -0.1648512444    -5.5689647538     3.2975545311
 F      0.6771991893    -5.7668987561     3.6019591924
 H      1.7794001413    -4.4785228252     3.5342589051
 F      2.2288815374    -3.6869529482     3.4234771174
          4
Energy: -6.327886126055148 Kcal/mole
 H     -0.1705908875    -5.5708134610     3.3126886206
 F      0.6775036641    -5.7668006865     3.6011563639
 H      1.7762091444    -4.4772586664     3.5302108154
 F      2.2290508124    -3.6870200089     3.4236918592
          4
Energy: -6.327977928877658 Kcal/mole
 H     -0.2032940816    -5.5213572346     3.5656463021
 F      0.6792384930    -5.7694242250     3.5877375434
 H      1.7835915681    -4.4858709996     3.4884436073
 F      2.2286591919    -3.6865631446     3.4259075131
          4
Energy: -6.327951802170446 Kcal/mole
 H     -0.2043313940    -5.5255647028     3.5608383651
 F      0.6792935200    -5.7692010285     3.5879925934
 H      1.7833047277    -4.4856052709     3.4897822224
 F      2.2286744081    -3.6865772409     3.4258365026
          4
Energy: -6.327857979851103 Kcal/mole
 H     -0.1931304433    -5.5323310450     3.4368837244
 F      0.6786993355    -5.7688420897     3.5945681006
 H      1.7834669549    -4.4839992073     3.5081739133
 F      2.2286658023    -3.6866624388     3.4248608659
          4
Energy: -6.32795774409027 Kcal/mole
 H     -0.2019337283    -5.5217248865     3.5328522226
 F      0.6791663294    -5.7694047219     3.5894771936
 H      1.7851873188    -4.4862727307     3.4943493264
 F      2.2285745410    -3.6865418337     3.4255942283
          4
Energy: -6.327897226535526 Kcal/mole
 H     -0.1934618858    -5.5219625601     3.6436365918
 F      0.6863151932    -5.7749571884     3.5900174788
 H      1.7889102020    -4.4894971571     3.4788195708
 F      2.2283770506    -3.6863707853     3.4264180460
          4
Energy: -6.327850983536564 Kcal/mole
 H     -0.1909593513    -5.5197731720     3.6682904740
 F      0.6861824395    -5.7750733304     3.5887096474
 H      1.7878824556    -4.4890843735     3.4764584925
 F      2.2284315702    -3.6863926825     3.4265432957
          4
Energy: -6.327872605491223 Kcal/mole
 H     -0.1912098510    -5.5261336494     3.6840276239
 F      0.6861957280    -5.7747359218     3.5878748279
 H      1.7864087214    -4.4883705994     3.4748749278
 F      2.2285097484    -3.6864305466     3.4266273002
          4
Energy: -6.327781695337762 Kcal/mole
 H     -0.1887729577    -5.5195226559     3.6887765540
 F      0.6860664564    -5.7750866197     3.5876229082
 H      1.7885091643    -4.4898457894     3.4691756377
 F      2.2283983247    -3.6863522912     3.4269296343
          4
Energy: -6.327955996928154 Kcal/mole
 H     -0.1947831670    -5.5358309717     3.5099261292
 F      0.6863852841    -5.7742215012     3.5971105099
 H      1.7857978089    -4.4859930206     3.5011790614
 F      2.2285421559    -3.6865566716     3.4252319267
          4
Energy: -6.327932165568882 Kcal/mole
 H     -0.1947227042    -5.5303146178     3.5261772965
 F      0.6863820767    -5.7745141310     3.5962484230
 H      1.7881816339    -4.4876342233     3.4976561223
 F      2.2284156995    -3.6864696096     3.4254188104
          4
Energy: -6.327782538152633 Kcal/mole
 H     -0.1984626317    -5.5350922187     3.5740578196
 F      0.6865804712    -5.7742606904     3.5937084719
 H      1.7864204712    -4.4875052242     3.4875929606
 F      2.2285091251    -3.6864764527     3.4259526379
          4
Energy: -6.327777025101341 Kcal/mole
 H     -0.1985441796    -5.5379455411     3.5540004187
 F      0.6865847971    -5.7741093282     3.5947724707
 H      1.7871809841    -4.4873589244     3.4945321713
 F      2.2284687816    -3.6864842136     3.4255845288
          4
Energy: -6.327833136950517 Kcal/mole
 H     -0.1663250006    -5.5819207416     3.3236189480
 F      0.6848756441    -5.7717765454     3.6069936754
 H      1.7799076546    -4.4791234288     3.5319993673
 F      2.2288546150    -3.6869210876     3.4235969806
          4
Energy: -6.327929542206562 Kcal/mole
 H     -0.1815078516    -5.5527217372     3.4023043144
 F      0.6856810593    -5.7733254851     3.6028195985
 H      1.7852690362    -4.4840617426     3.5167227666
 F      2.2285702060    -3.6866591215     3.4244073690
          4
Energy: -6.327854297607644 Kcal/mole
 H     -0.1399806771    -5.6058321605     3.2429182909
 F      0.6834781387    -5.7705080999     3.6112746587
 H      1.7781060362    -4.4764188144     3.5435984849
 F      2.2289501866    -3.6870645612     3.4229816743
          4
Energy: -6.327958841333555 Kcal/mole
 H     -0.1653487659    -5.5762406475     3.3245554403
 F      0.6848238572    -5.7720778613     3.6069439966
 H      1.7815765831    -4.4801266735     3.5315601654
 F      2.2287660822    -3.6868678678     3.4236202793
          4
Energy: -6.327873775155467 Kcal/mole
 H     -0.1510833766    -5.5834415961     3.2806790948
 F      0.6840671112    -5.7716958676     3.6092715354
 H      1.7812697532    -4.4792722213     3.5364478697
 F      2.2287823588    -3.6869131945     3.4233609979
          4
Energy: -6.327961908153156 Kcal/mole
 H     -0.1627113666    -5.5792270958     3.3147528139
 F      0.6846839492    -5.7719194371     3.6074640033
 H      1.7810130611    -4.4796052380     3.5330439788
 F      2.2287959757    -3.6868955287     3.4235415664
          4
Energy: -6.327966431795176 Kcal/mole
 H     -0.1717747229    -5.5658927141     3.3528471123
 F      0.6851647393    -5.7726267952     3.6054431888
 H      1.7824065409    -4.4813722168     3.5256645668
 F      2.2287220548    -3.6868017946     3.4239330272
          4
Energy: -6.327953457638728 Kcal/mole
 H     -0.1943879117    -5.5381101040     3.5002922347
 F      0.6863643167    -5.7741005985     3.5976215658
 H      1.7870084875    -4.4864615184     3.5032635604
 F      2.2284779322    -3.6865318189     3.4251213488
          4
Energy: -6.327962483406793 Kcal/mole
 H     -0.1969325380    -5.5363768262     3.5335601826
 F      0.6864993033    -5.7741925449     3.5958567780
 H      1.7861301608    -4.4866301744     3.4962368110
 F      2.2285245254    -3.6865228721     3.4254941016
          4
Energy: -6.327956475743122 Kcal/mole
 H     -0.1864332338    -5.5459934990     3.4337943455
 F      0.6859423395    -5.7736824026     3.6011491251
 H      1.7863287747    -4.4850017608     3.5136258166
 F      2.2285139894    -3.6866092557     3.4245716551
          4
Energy: -6.327963665937546 Kcal/mole
 H     -0.1947608262    -5.5344678732     3.5135165643
 F      0.6863840990    -5.7742938104     3.5969200456
 H      1.7863047754    -4.4863597409     3.5002658171
 F      2.2285152625    -3.6865372180     3.4252803722
          4
Energy: -6.327943267459318 Kcal/mole
 H     -0.1975780788    -5.5357906087     3.5463391433
 F      0.6865335477    -5.7742236424     3.5951788837
 H      1.7855271848    -4.4865042523     3.4938448433
 F      2.2285565119    -3.6865295520     3.4256209900
          4
Energy: -6.327976705544302 Kcal/mole
 H     -0.1893028727    -5.5463280208     3.4490570363
 F      0.6860945672    -5.7736646570     3.6003394746
 H      1.7850250265    -4.4846497354     3.5102292511
 F      2.2285831502    -3.6866279298     3.4247518350
          4
Energy: -6.327907890773474 Kcal/mole
 H     -0.1958810754    -5.5276482760     3.6279916276
 F      0.6864435256    -5.7746555743     3.5908474080
 H      1.7856714766    -4.4874018696     3.4834098845
 F      2.2285488575    -3.6864819355     3.4261745404
          4
Energy: -6.3278852960719405 Kcal/mole
 H     -0.1934972932    -5.5206206193     3.6361567786
 F      0.6863170715    -5.7750283753     3.5904142657
 H      1.7882387425    -4.4889788152     3.4810743555
 F      2.2284126700    -3.6863982821     3.4262984348
          4
Energy: -6.327977357051907 Kcal/mole
 H     -0.1868889635    -5.5276255562     3.7200812037
 F      0.6859665149    -5.7746567795     3.5859622688
 H      1.7846789853    -4.4878803469     3.4663442913
 F      2.2286015069    -3.6864565533     3.4270798307
          4
Energy: -6.327786811027693 Kcal/mole
 H     -0.1782030509    -5.5221622542     3.7599069507
 F      0.6855057473    -5.7749465951     3.5838496050
 H      1.7836981662    -4.4875871001     3.4608168755
 F      2.2286535371    -3.6864721094     3.4273730473
          4
Energy: -6.327906931101552 Kcal/mole
 H     -0.1848487505    -5.5235917034     3.7257239520
 F      0.6858582863    -5.7748707661     3.5856629341
 H      1.7863997330    -4.4887904052     3.4671640494
 F      2.2285102252    -3.6864082768     3.4270363444
          4
Energy: -6.32794522256404 Kcal/mole
 H     -0.1913886110    -5.5292117378     3.6901007651
 F      0.6862052108    -5.7745726363     3.5875526618
 H      1.7851874487    -4.4879228285     3.4709392527
 F      2.2285745341    -3.6864542998     3.4268360786
          4
Energy: -6.327865856393203 Kcal/mole
 H     -0.1952818151    -5.5231032531     3.6024749142
 F      0.6864117362    -5.7748966773     3.5922010107
 H      1.7865376077    -4.4877760344     3.4848487674
 F      2.2285029113    -3.6864620869     3.4260982110
          4
Energy: -6.327958355145142 Kcal/mole
 H     -0.1948044471    -5.5288316556     3.6527264878
 F      0.6863864130    -5.7745927988     3.5895352809
 H      1.7850859257    -4.4874831833     3.4774063532
 F      2.2285799196    -3.6864776220     3.4264930139
          4
Energy: -6.327922671207887 Kcal/mole
 H     -0.1926918702    -5.5271765389     3.6724481969
 F      0.6862743457    -5.7746805989     3.5884890898
 H      1.7847309318    -4.4873917569     3.4757217330
 F      2.2285987512    -3.6864824719     3.4265823791
          4
Energy: -6.327979852627664 Kcal/mole
 H     -0.1746151635    -5.5296286511     3.7859891551
 F      0.6853154181    -5.7745505200     3.5824660043
 H      1.7832435228    -4.4875396474     3.4554475627
 F      2.2286776549    -3.6864746267     3.4276578770
          4
Energy: -6.327957776543258 Kcal/mole
 H     -0.1798365536    -5.5272648110     3.7591318960
 F      0.6855924008    -5.7746759162     3.5838907198
 H      1.7852441991    -4.4884780820     3.4599824482
 F      2.2285715236    -3.6864248449     3.4274173118
          4
Energy: -6.327939241729496 Kcal/mole
 H     -0.1879576163    -5.5183115458     3.7257962901
 F      0.6820562491    -5.7714455466     3.5847712866
 H      1.7841892604    -4.4875967803     3.4665902300
 F      2.2286274857    -3.6864715959     3.4270667842
          4
Energy: -6.327956294917726 Kcal/mole
 H     -0.1947084899    -5.5213955399     3.6824702431
 F      0.6824143673    -5.7712819479     3.5870696332
 H      1.7851162002    -4.4877894261     3.4726134915
 F      2.2285783136    -3.6864613765     3.4267472641
          4
Energy: -6.327984373672109 Kcal/mole
 H     -0.1947966923    -5.5187494258     3.6743232259
 F      0.6824190462    -5.7714223181     3.5875018137
 H      1.7850131340    -4.4876517862     3.4739993049
 F      2.2285837811    -3.6864686780     3.4266737499
          4
Energy: -6.327987339637218 Kcal/mole
 H     -0.1974744401    -5.5207598652     3.6492334853
 F      0.6825610946    -5.7713156690     3.5888327664
 H      1.7851043258    -4.4874982737     3.4773291503
 F      2.2285789436    -3.6864768214     3.4264971093
          4
Energy: -6.327969037904722 Kcal/mole
 H     -0.1995641122    -5.5213453788     3.6003115105
 F      0.6826719469    -5.7712846088     3.5914279642
 H      1.7862191296    -4.4874874355     3.4863669034
 F      2.2285198058    -3.6864773964     3.4260176774
          4
Energy: -6.327979056696677 Kcal/mole
 H     -0.1989420480    -5.5207533233     3.6207147618
 F      0.6826389478    -5.7713160160     3.5903456188
 H      1.7854511739    -4.4873032024     3.4830844032
 F      2.2285605441    -3.6864871695     3.4261918065
          4
Energy: -6.32797974799206 Kcal/mole
 H     -0.1987581738    -5.5192408682     3.6123083593
 F      0.6826291937    -5.7713962482     3.5907915590
 H      1.7857414610    -4.4874319318     3.4835305503
 F      2.2285451450    -3.6864803407     3.4261681394
          4
Energy: -6.32798046526915 Kcal/mole
 H     -0.1997257746    -5.5231541428     3.6174802470
 F      0.6826805227    -5.7711886581     3.5905172024
 H      1.7850413073    -4.4871154624     3.4825300366
 F      2.2285822865    -3.6864971287     3.4262212143
          4
Energy: -6.327976631288038 Kcal/mole
 H     -0.1989447129    -5.5194749528     3.6066150847
 F      0.6826390892    -5.7713838306     3.5910935741
 H      1.7855868033    -4.4872717075     3.4845636465
 F      2.2285533492    -3.6864888403     3.4261133360
          4
Energy: -6.3279893005066015 Kcal/mole
 H     -0.1981545546    -5.5199626198     3.6339790585
 F      0.6825971731    -5.7713579610     3.5896419785
 H      1.7855335901    -4.4875513591     3.4801531157
 F      2.2285561721    -3.6864740054     3.4263473045
          4
Energy: -6.327987530950622 Kcal/mole
 H     -0.1994695010    -5.5216488617     3.6112056917
 F      0.6826669280    -5.7712685097     3.5908500530
 H      1.7848016321    -4.4868956495     3.4837525426
 F      2.2285950008    -3.6865087893     3.4261563632
          4
Energy: -6.327986035940285 Kcal/mole
 H     -0.1998499824    -5.5230116484     3.6113762779
 F      0.6826871116    -5.7711962171     3.5908410038
 H      1.7846878903    -4.4868210593     3.4839122758
 F      2.2286010345    -3.6865127461     3.4261478897
          4
Energy: -6.327991748767374 Kcal/mole
 H     -0.1996065577    -5.5220023352     3.6095239157
 F      0.6826741985    -5.7712497588     3.5909392673
 H      1.7850952507    -4.4870390166     3.4840210102
 F      2.2285794250    -3.6865011840     3.4261421216
          4
Energy: -6.327993305344705 Kcal/mole
 H     -0.1991639189    -5.5212720248     3.6088736108
 F      0.6829461743    -5.7711700925     3.5909365192
 H      1.7853903258    -4.4871951069     3.4841219264
 F      2.2285637719    -3.6864929037     3.4261367682
          4
Energy: -6.3279933078143245 Kcal/mole
 H     -0.1991718731    -5.5212996478     3.6088672545
 F      0.6829465963    -5.7711686271     3.5909368564
 H      1.7853773330    -4.4871878998     3.4841221425
 F      2.2285644612    -3.6864932861     3.4261367568
          4
Energy: -6.3279933078143245 Kcal/mole
 H     -0.1991718731    -5.5212996452     3.6088672179
 F      0.6829465963    -5.7711686273     3.5909368584
 H      1.7853773330    -4.4871878998     3.4841221425
 F      2.2285644612    -3.6864932861     3.4261367568
          4
Energy: -6.3279933078143245 Kcal/mole
 H     -0.1991718731    -5.5212996370     3.6088671041
 F      0.6829465963    -5.7711686277     3.5909368644
 H      1.7853773330    -4.4871878998     3.4841221425
 F      2.2285644612    -3.6864932861     3.4261367568
          4
Energy: -6.3279933078143245 Kcal/mole
 H     -0.1991718731    -5.5212996370     3.6088671041
 F      0.6829465963    -5.7711686277     3.5909368644
 H      1.7853773330    -4.4871878998     3.4841221425
 F      2.2285644612    -3.6864932861     3.4261367568
          4
Energy: -6.3279933078143245 Kcal/mole
 H     -0.1991718731    -5.5212996370     3.6088671041
 F      0.6829465963    -5.7711686277     3.5909368644
 H      1.7853773330    -4.4871878998     3.4841221425
 F      2.2285644612    -3.6864932861     3.4261367568
          4
Energy: -6.3279933078143245 Kcal/mole
 H     -0.1991718731    -5.5212996370     3.6088671041
 F      0.6829465963    -5.7711686277     3.5909368644
 H      1.7853773330    -4.4871878998     3.4841221425
 F      2.2285644612    -3.6864932861     3.4261367568
          4
Energy: -6.3279933078143245 Kcal/mole
 H     -0.1991718731    -5.5212996370     3.6088671041
 F      0.6829465963    -5.7711686277     3.5909368644
 H      1.7853773330    -4.4871878998     3.4841221425
 F      2.2285644612    -3.6864932861     3.4261367568
          4
Energy: -6.3279933078143245 Kcal/mole
 H     -0.1991718736    -5.5212996370     3.6088670791
 F      0.6829465963    -5.7711686277     3.5909368657
 H      1.7853773330    -4.4871878998     3.4841221425
 F      2.2285644612    -3.6864932861     3.4261367568
          4
Energy: -6.3279933078143245 Kcal/mole
 H     -0.1991718736    -5.5212996370     3.6088670791
 F      0.6829465963    -5.7711686277     3.5909368657
 H      1.7853773330    -4.4871878998     3.4841221425
 F      2.2285644612    -3.6864932861     3.4261367568
          4
Energy: -6.3279933078143245 Kcal/mole
 H     -0.1991718736    -5.5212996370     3.6088670791
 F      0.6829465963    -5.7711686277     3.5909368657
 H      1.7853773330    -4.4871878998     3.4841221425
 F      2.2285644612    -3.6864932861     3.4261367568
          4
Energy: -6.3279933078143245 Kcal/mole
 H     -0.1991718736    -5.5212996226     3.6088668776
 F      0.6829465963    -5.7711686285     3.5909368764
 H      1.7853773330    -4.4871878998     3.4841221425
 F      2.2285644612    -3.6864932861     3.4261367568
          4
Energy: -6.327993310175202 Kcal/mole
 H     -0.1991760243    -5.5213124115     3.6088408726
 F      0.6829468165    -5.7711679501     3.5909382559
 H      1.7853802549    -4.4871756633     3.4841400466
 F      2.2285673831    -3.6864808353     3.4261576191
          4
Energy: -6.3279933102008386 Kcal/mole
 H     -0.1991768234    -5.5213150675     3.6088385655
 F      0.6829468589    -5.7711678092     3.5909383783
 H      1.7853797898    -4.4871754058     3.4841400466
 F      2.2285674078    -3.6864808490     3.4261576191
          4
Energy: -6.327993310201009 Kcal/mole
 H     -0.1991768234    -5.5213151013     3.6088390373
 F      0.6829468589    -5.7711678074     3.5909383533
 H      1.7853797898    -4.4871754058     3.4841400466
 F      2.2285674078    -3.6864808490     3.4261576191
          4
Energy: -6.327993310201521 Kcal/mole
 H     -0.1991769890    -5.5213156051     3.6088379086
 F      0.6829468676    -5.7711677806     3.5909384132
 H      1.7853797993    -4.4871754058     3.4841401190
 F      2.2285674073    -3.6864808490     3.4261576153
          4
Energy: -6.327993310201521 Kcal/mole
 H     -0.1991769890    -5.5213156051     3.6088379086