          5
Energy: -2.8855452233694816 Kcal/mole
 Kr     5.8206224683    -6.2724443466     1.2717168100
 Kr     6.0326778444    -2.2319977763     0.9079518920
 Kr     2.4045765962    -4.0832824860     0.8132748108
 Kr     2.4802790884    -7.2475219829     3.3602305057
 Kr     4.5040062948    -3.8692609418     4.2917423035
