          5
Energy: -2.8855109657868905 Kcal/mole
 Kr    -5.4313919709     4.3994788947    -3.8685734034
 Kr    -2.8334119005     3.7586398816    -6.9257277703
 Kr    -1.4497952303     5.0315535367    -3.3202934476
 Kr    -3.6818628416     3.3208226979    -0.3637527084
 Kr    -2.8631751596     1.2346300221    -3.7526551406
