          5
Energy: -0.5551832588553928 Kcal/mole
 Kr    -2.4837900047     2.3787554209     3.9682556101
 Kr     2.3484958298     2.2212913634     5.0697360294
 Kr     4.6245634558    -3.2869291886    -4.1941670194
 Kr     5.3738577000     4.9401690949     0.4667042370
 Kr     6.3333154483     0.4572357968     0.3481542328
          5
Energy: -1.1054795217584699 Kcal/mole
 Kr     0.9927407584     1.4957032108     3.8669631106
 Kr     3.1969159847     2.0533822073    -2.9442316267
 Kr    -6.6983741533    -7.2729150007     7.0993288659
 Kr     1.3414496672     3.7494599607     0.6155810079
 Kr    -2.6476939041     1.1156341225     1.9378723132
          5
Energy: -0.48924779329283713 Kcal/mole
 Kr     0.7123249796    -7.4253638285     1.4867491867
 Kr     3.8921867868    -3.8789528394     1.6133254661
 Kr     7.2386258995     1.7741665357    -0.5286250629
 Kr    -1.7715658087     6.3309202507     1.1290705751
 Kr     6.7365889274     0.5780505672     4.1107105852
          5
Energy: -1.6790276497262768 Kcal/mole
 Kr     2.0791387391    -2.8655763838     4.9417646478
 Kr     4.6308884469    -0.6723309734     3.1628352315
 Kr     5.7375438784    -2.1846189661    -1.7587924361
 Kr     1.9457416876    -3.7021753192     0.9017054703
 Kr     0.8025616889    -6.4093493434     3.3119065004
          5
Energy: -2.25352614706781 Kcal/mole
 Kr    -0.2788642329     1.9545577771    -1.2953542770
 Kr     2.1253076729    -1.2941927357     0.4467163995
 Kr     3.8799545153     1.9967572480    -1.3869433790
 Kr     1.0171896449    -0.9322213824    -3.5718072793
 Kr    -0.3295048463    -4.5567980504    -2.2772950899
          5
Energy: -2.380178499723429 Kcal/mole
 Kr     2.3619729014     2.5515912193     1.3985471083
 Kr     3.3864547096     5.2635953293    -2.1210181081
 Kr     0.5445482454     5.0500059557     4.0759096637
 Kr     4.5564385360     6.1098052223     2.6915740008
 Kr     0.8287204107     7.0523961805     0.6749900927
          5
Energy: -2.659138201539284 Kcal/mole
 Kr     5.6084833584     2.0113299978    -2.1654846706
 Kr     1.4572698040     0.5724247744    -2.2704111322
 Kr     2.7629891675     3.2158609887     0.7747210522
 Kr     5.5140095766     5.9005063452    -1.5561717719
 Kr     2.1433196929     4.2773436079    -3.2857134905
          5
Energy: -2.714989149195682 Kcal/mole
 Kr     5.9061072278    -5.4794104272     2.8627357377
 Kr     7.2984048085    -2.8433873232    -0.1425016540
 Kr     3.5731128492    -1.9323107874     1.0643383827
 Kr     3.2239225390    -3.4690214705     5.0885013475
 Kr     6.8408334976    -1.6870557947     3.7472561960
          5
Energy: -2.7468747946262733 Kcal/mole
 Kr     5.7902570966    -6.5231459251     1.1628707587
 Kr     5.9486392738    -1.9764253136     1.1667391657
 Kr     2.5036532596    -4.0668659563     0.6441479852
 Kr     2.2104303740    -7.1479262451     3.3146259990
 Kr     4.7308968949    -4.0235413279     4.2660581799
          5
Energy: -2.8855452233694816 Kcal/mole
 Kr     5.8206224683    -6.2724443466     1.2717168100
 Kr     6.0326778444    -2.2319977763     0.9079518920
 Kr     2.4045765962    -4.0832824860     0.8132748108
 Kr     2.4802790884    -7.2475219829     3.3602305057
 Kr     4.5040062948    -3.8692609418     4.2917423035
