          5
Energy: -0.07063280244011974 Kcal/mole
 Kr     2.8653038646     2.5802190183    -4.4090943267
 Kr    -3.0723414743    -3.2731799915    -3.6415056190
 Kr    -1.0849958671    -4.2542232338     3.6624615542
 Kr     3.0490845409     4.6257370790     2.9898245932
 Kr    -4.8505129868     2.4007937787     3.7725085821
