          5
Energy: -0.35536323375116574 Kcal/mole
 Kr    -4.9320425371    -4.1444569814    -5.4190796164
 Kr     0.8973239469    -5.3575404264     5.6218039002
 Kr     0.7887206501     0.6136412447     4.7967270968
 Kr    -6.9168067772    -7.4490813859     6.0516314268
 Kr     0.7687209403    -4.0840789429     1.1177391724
          5
Energy: -0.35012320341239195 Kcal/mole
 Kr     5.2214947407    -2.9279342455     7.4807159599
 Kr     6.5812904404     1.1569616698    -1.9259690112
 Kr    -3.6506108860     6.2055863522    -7.0344335438
 Kr     6.6387381535     6.0302495863     2.8146812095
 Kr    -7.0889842881     6.4434229513    -4.7740738241
          5
Energy: -0.5463755317496356 Kcal/mole
 Kr     1.3672799071    -0.7681181563    -5.3070801075
 Kr     3.2536526453     5.3184407701    -2.9822647118
 Kr     4.3091663185    -3.8048981602    -3.6859920961
 Kr    -3.9009446977    -2.3692502664    -6.3834898777
 Kr     6.9329270729     7.3892927106    -5.5173973760
          5
Energy: -0.2019866830842616 Kcal/mole
 Kr    -2.5681601835     3.0998431430     4.2669639885
 Kr     5.5817043860     5.3159245180    -1.1043947807
 Kr     0.6673023508    -3.1413654654    -0.6658460227
 Kr     6.1607640919    -1.0805465420     5.7345369728
 Kr    -2.7428538893    -3.0235931876    -4.2027582610
          5
Energy: -1.0877510733006985 Kcal/mole
 Kr     4.9222448823     3.4569849295    -0.4483512125
 Kr    -3.4300154458    -1.1009342895     1.8848323304
 Kr     5.2283369626     1.6188973638     4.6003363786
 Kr     0.9554891183     0.4981095007     2.7507892567
 Kr     2.2694821771     4.3989114416     5.5315402165
          5
Energy: -0.23992511649466344 Kcal/mole
 Kr    -6.8654189722     1.8027819828     5.8194527614
 Kr    -0.7025890586     4.0161030411    -0.0437328153
 Kr    -2.1860692072    -4.3760759162    -3.1665893866
 Kr    -3.6499099374    -0.7977871307    -5.9452434889
 Kr     4.0052825451    -1.8917332176     2.7029029076
          5
Energy: -1.9786966773488608 Kcal/mole
 Kr     1.4746661412     5.7226746826    -0.7562558349
 Kr     0.5117364177     5.9269247425     3.6320339514
 Kr    -2.2574642898     4.2664368954    -2.6196362051
 Kr    -2.3809670056     2.9779081149     1.0616065120
 Kr    -2.8364938208     7.4470169839     1.3798533196
          5
Energy: -2.3955059860690455 Kcal/mole
 Kr     1.3565174846     6.1753279980    -0.6108626538
 Kr    -1.7248414349     6.4227620707    -2.9002173165
 Kr     2.0007300952     4.4281452067    -4.8822033687
 Kr     3.1472542468     2.5368424053    -1.4274907356
 Kr    -0.7868586903     2.4052272321    -1.4123983254
          5
Energy: -2.484514151224003 Kcal/mole
 Kr    -5.6586028928     3.8214775842    -3.2835016457
 Kr    -3.2689709616     4.6633566824    -7.0641239373
 Kr    -1.3357068579     4.7269139400    -3.4631458844
 Kr    -3.3997534972     3.4055010536     0.0261943371
 Kr    -2.6417678488     1.0616880335    -3.7387014183
          5
Energy: -2.8855109657868905 Kcal/mole
 Kr    -5.4313919709     4.3994788947    -3.8685734034
 Kr    -2.8334119005     3.7586398816    -6.9257277703
 Kr    -1.4497952303     5.0315535367    -3.3202934476
 Kr    -3.6818628416     3.3208226979    -0.3637527084
 Kr    -2.8631751596     1.2346300221    -3.7526551406
