          3
Energy: -0.059999905151523966 Kcal/mole
 He     5.3893930077     0.8364137387    -1.8402724426
 He     4.5377593868     3.5710814867    -1.6872893911
 He     6.3658936618     2.5266083598     0.2613383804
