          3
Energy: -0.05999904343833027 Kcal/mole
 He     3.2123470245     3.9708036746     0.5734653871
 He     2.4350493636     6.6567278955    -0.0616383017
 He     0.4323481205     4.6708605190     0.4488873341
