          3
Energy: -0.059999012867536915 Kcal/mole
 He    -1.4530910430     6.2326171696     1.6410363154
 He     1.1616184768     7.2881376178     1.0974247578
 He     0.6410540982     5.9505424893     3.5797320429
