          3
Energy: -0.059999574619242296 Kcal/mole
 He    -5.4790462572     0.0952362037    -3.9495570260
 He    -6.3681704929    -2.6183918435    -4.2421587615
 He    -3.9794900674    -2.0446665761    -2.7612798558
