          3
Energy: -0.02033193328936144 Kcal/mole
 He    -3.5276760465     2.2518773089     7.0632984089
 He     3.0584883132     3.1047317196     1.7285024502
 He    -2.7571148568     2.1825438335     4.3221126086
          3
Energy: -0.0015021417673572526 Kcal/mole
 He    -1.9198816494     2.8620057085    -6.0467538679
 He    -3.9607190273    -6.0566451237     6.2395183136
 He    -1.8520046355    -2.7815672745     3.1839833241
          3
Energy: -6.523370090687977E-4 Kcal/mole
 He    -1.2115261284    -5.3078177023    -0.6789500466
 He    -4.0176545060    -2.9309700610    -5.3440065058
 He    -6.2258081858     3.4474663466    -2.1390015361
          3
Energy: -0.013373732004824924 Kcal/mole
 He    -5.5077504878     4.4797029825    -2.6641793657
 He     2.8591753857     0.5772371137     5.7663202001
 He    -2.9420230420     5.2567073231    -4.6059743537
          3
Energy: -5.237784210879901E-5 Kcal/mole
 He    -0.2893846520     6.4176992674     0.4493578821
 He     7.4828003934     7.2265068194     7.0976695607
 He     0.1784391391    -2.5397344100    -2.4712651925
          3
Energy: -1.8491570443224527E-4 Kcal/mole
 He    -1.1651124309    -1.9431291418    -6.8004930041
 He     6.6947571814    -3.4342659282     3.3101744699
 He     4.3740553757     1.7049299597    -3.4442620984
          3
Energy: -0.04087165304213718 Kcal/mole
 He     1.7507381717    -2.5452691925     4.6064575045
 He     1.1289489280    -0.4150460974     2.5954673152
 He    -1.7404682494    -0.4893213961     2.1906943603
          3
Energy: -1.4917911314186677E-4 Kcal/mole
 He    -1.8628671787    -4.8040501684     5.2861156985
 He     1.7046801977    -1.9721852621    -0.6144523145
 He    -4.5282981948     6.7475897933     0.4721841079
          3
Energy: -0.04736603271099741 Kcal/mole
 He    -5.5227798197     0.1256998258    -3.4806421281
 He    -6.7204258463    -2.6179231358    -4.3814664519
 He    -4.1205916121    -1.9438856076    -2.3108279586
          3
Energy: -0.059999574619242296 Kcal/mole
 He    -5.4790462572     0.0952362037    -3.9495570260
 He    -6.3681704929    -2.6183918435    -4.2421587615
 He    -3.9794900674    -2.0446665761    -2.7612798558
