          3
Energy: -5.405544755669229E-4 Kcal/mole
 He     3.8155057978    -4.1956106378    -0.5183347296
 He    -4.0408641829     1.7844375150     0.4705698481
 He    -2.3628236597    -3.4860656600    -3.0743879659
