          2
Energy: -0.31699999971439885 Kcal/mole
 Kr     3.1274467690    -5.0912676227     4.2702828092
 Kr     5.0791932967    -3.1964567938     1.2458416784
