          2
Energy: -0.3169999999360335 Kcal/mole
 Kr     5.0661366083     2.4090814635    -4.0945884953
 Kr     6.2840563727    -0.7581217225    -1.8512702756
