          2
Energy: -0.31699999993206945 Kcal/mole
 Kr     4.3545425001    -3.5315789088     6.2547394418
 Kr     6.7327256941    -0.2649032508     5.7855567742
