          2
Energy: -0.31699999930211237 Kcal/mole
 Kr    -4.5107873266     0.8368729905     0.2637300232
 Kr    -6.6604519130     4.0554629302    -0.9880235754
