          2
Energy: -0.004597290774902439 Kcal/mole
 Kr    -2.0660329502     3.0312121223    -1.0559180838
 Kr    -5.7371007787    -4.6128085605    -4.7272145279
          2
Energy: -0.0016545511589122644 Kcal/mole
 Kr     1.5540382927     3.8220580387     0.3304945823
 Kr     1.2149779940    -6.8297230914    -2.2305274919
          2
Energy: -0.16346614648707028 Kcal/mole
 Kr     1.1633697368    -2.7222648415    -2.2901232422
 Kr    -0.8747567444    -5.7358046234     1.0821306637
          2
Energy: -0.3084583103074734 Kcal/mole
 Kr     2.4477810632    -1.6856952915     2.9052813852
 Kr     5.6933565968    -1.6881242288     5.5571488364
          2
Energy: -5.787944877724839E-5 Kcal/mole
 Kr     5.7559068581    -7.4037359473    -1.0117173694
 Kr    -7.3638453300     6.1455933497    -4.4422623921
          2
Energy: -0.06262926429417325 Kcal/mole
 Kr     1.0870138677     4.5456201667    -6.6564380373
 Kr    -4.4317991357     2.4035460416    -6.9977277314
          2
Energy: -0.2524689086743486 Kcal/mole
 Kr    -5.9775084906    -7.0514432156     3.4509744159
 Kr    -2.4895147120    -4.7132170534     5.0563190501
          2
Energy: -0.30865325725749115 Kcal/mole
 Kr    -6.3033153030     4.0152741315    -1.7327417010
 Kr    -4.4616434523     0.3196646330    -2.4424630051
          2
Energy: -0.3151760309718682 Kcal/mole
 Kr     3.3112678224    -5.0763231336     4.4174118378
 Kr     4.9654902919    -3.4355820381     1.0174985728
          2
Energy: -0.31699999971439885 Kcal/mole
 Kr     3.1274467690    -5.0912676227     4.2702828092
 Kr     5.0791932967    -3.1964567938     1.2458416784
