          2
Energy: -7.712159121243197E-4 Kcal/mole
 Kr     3.8275307646    -2.9782277097    -4.7269070228
 Kr    -7.2572423688     1.8843488127    -1.8181443776
          2
Energy: -4.446767329598234E-4 Kcal/mole
 Kr     7.4909817868    -4.4176150284     6.2268662263
 Kr     2.6056625258     4.7765723841    -2.5945090480
          2
Energy: -2.993414872480518E-4 Kcal/mole
 Kr     5.8919223131    -3.9290865519    -5.0680978869
 Kr    -2.3858157508     4.6907162174     3.2782838202
          2
Energy: -0.0208031692313488 Kcal/mole
 Kr     6.4393851482     0.4958371914     0.0760339543
 Kr     5.7187907348     3.3362080299     6.6189670568
          2
Energy: -0.001034978567555178 Kcal/mole
 Kr    -1.9529469954     7.2006978007     6.8101789380
 Kr     5.5996874986    -1.5136345586     4.0695742866
          2
Energy: -4.764417353040585E-4 Kcal/mole
 Kr     3.3420221595     6.4723961988     0.6276281836
 Kr     1.1181199287    -5.6081211120    -4.9487474795
          2
Energy: -0.23118688288375233 Kcal/mole
 Kr     0.2271475908     4.0982929858    -0.1610653287
 Kr     3.5479563626     6.5460649582    -2.1904712008
          2
Energy: -0.2921794721411114 Kcal/mole
 Kr     2.3522496168     4.3884515272     5.0000216119
 Kr    -1.5279171443     4.8184714518     5.0066106049
          2
Energy: -0.2865846515885969 Kcal/mole
 Kr    -4.3743927837     0.8054873166    -0.0421887564
 Kr    -6.5410491319     3.9414180073    -0.8136705028
          2
Energy: -0.31699999930211237 Kcal/mole
 Kr    -4.5107873266     0.8368729905     0.2637300232
 Kr    -6.6604519130     4.0554629302    -0.9880235754
