          2
Energy: -0.0020825083015223005 Kcal/mole
 Kr     4.5790706748     4.3831794422    -2.1862339742
 Kr    -4.9245500411    -0.1341442352    -1.4589406657
