          2
Energy: -0.4329999998903723 Kcal/mole
 Xe     2.5017271778    -5.0886734518    -2.2829409278
 Xe     1.5336648837    -0.8056639515    -2.7599979116
