          2
Energy: -0.43299999859110144 Kcal/mole
 Xe    -3.9402142064     1.6011054922     0.7861042734
 Xe    -6.8848737803     3.0560772006    -2.1669589034
