          2
Energy: -0.43299999904091707 Kcal/mole
 Xe    -1.2599926982    -3.5847253342    -4.4033556017
 Xe     0.0282820379     0.5836908672    -3.7149925817
