          2
Energy: -0.3487785591123331 Kcal/mole
 Xe     3.8313678181     5.8440444235     4.2338981052
 Xe     2.4149503843     2.8845587634     0.6397095451
          2
Energy: -0.3417310207908245 Kcal/mole
 Xe    -0.8632684364    -4.4829435943     7.2295993175
 Xe    -1.8538082839    -6.2805254767     2.7875803783
          2
Energy: -0.43299992756119166 Kcal/mole
 Xe    -3.4587557518    -1.2926526746     6.9445180132
 Xe    -2.4099918969    -1.6735065467     2.6705732003
          2
Energy: -0.016743819991725497 Kcal/mole
 Xe     3.5164465915     6.9337643289     0.7240836682
 Xe    -4.6499224889     5.8922672593    -1.4380716842
          2
Energy: -0.4252885092818891 Kcal/mole
 Xe    -0.9178828545     4.5540072848     0.9763350692
 Xe    -3.1258525675     1.8998568287     3.5823696889
          2
Energy: -0.007157261046211384 Kcal/mole
 Xe     7.3955342543     3.9310077239     0.9655404333
 Xe    -1.7434309551     6.8153570202    -1.1599855693
          2
Energy: -0.37968887375429805 Kcal/mole
 Xe    -6.0374168924    -0.3489048818    -0.6486245939
 Xe    -6.4698782818     1.2218138933    -4.5207986218
          2
Energy: -0.4260167492793273 Kcal/mole
 Xe     1.0043128692    -0.5253809911    -0.7103766616
 Xe    -1.6090371641    -1.9610463958    -3.8498029124
          2
Energy: -0.4270279036374127 Kcal/mole
 Xe    -4.0103341220     1.6958167162     0.8797520283
 Xe    -6.9724364400     3.2732672817    -2.1328990170
          2
Energy: -0.43299999859110144 Kcal/mole
 Xe    -3.9402142064     1.6011054922     0.7861042734
 Xe    -6.8848737803     3.0560772006    -2.1669589034
