          2
Energy: -0.002386792571102888 Kcal/mole
 Xe     6.5597070631    -4.4348390890    -0.3346642583
 Xe    -3.0895361334    -1.7124836275    -6.5444730854
          2
Energy: -0.08836911950035603 Kcal/mole
 Xe    -3.0815718055     1.2597877732     3.6623933446
 Xe    -0.3834599192     6.5536788028     6.0454138860
          2
Energy: -0.047164683802521555 Kcal/mole
 Xe    -6.3031111928     0.9378668297     3.9813347645
 Xe    -0.3774666252    -2.3527817949     6.2264789567
          2
Energy: -0.004213189237102265 Kcal/mole
 Xe     2.4353426114     3.5223442661     1.4438069491
 Xe    -5.3546393767     0.3270562799    -5.2004517825
          2
Energy: -0.3459010243061925 Kcal/mole
 Xe    -0.9942312117    -4.5451915035    -0.0799480430
 Xe     3.1123021712    -4.0911521424    -0.4952265110
          2
Energy: -0.43194531853174356 Kcal/mole
 Xe     5.3636587219     6.4970824118    -3.1990727167
 Xe     2.1640806853     6.4990057673    -6.2980279383
          2
Energy: -0.4315823639467363 Kcal/mole
 Xe    -5.5773609049     2.7677893223    -1.5356555275
 Xe    -2.1773097907     3.0689945399    -4.4070276128
          2
Energy: -0.432998036804423 Kcal/mole
 Xe     0.9208195384    -2.5546867247    -5.1593241753
 Xe     2.9632482251    -3.7435594835    -1.4296940525
          2
Energy: -0.4316137814982597 Kcal/mole
 Xe    -0.0781771812    -4.4005347487    -0.5844374112
 Xe    -0.9561165614    -3.6272741850     3.7193582709
          2
Energy: -0.4329999998869727 Kcal/mole
 Xe     0.0315082392    -4.0395921621    -0.5957283901
 Xe    -0.8369784281    -3.7915105540     3.7278198088
