          2
Energy: -0.2507222423804788 Kcal/mole
 Xe     7.2532823440    -4.8685318494     3.9422243804
 Xe     7.2011917803    -0.4490610756     6.7913082069
          2
Energy: -0.34772688319540945 Kcal/mole
 Xe     1.3643744661    -1.8208949739     2.6582556030
 Xe     0.7366581888     2.0112544017     4.1352864519
          2
Energy: -0.17711495207485542 Kcal/mole
 Xe    -4.2995065516     0.0390112429    -4.6197022901
 Xe    -4.3099419654    -2.1806604497     0.5625937797
          2
Energy: -0.3912826950389474 Kcal/mole
 Xe    -7.4687668476     0.7679500259    -0.5831053618
 Xe    -5.5269371254     2.1323759584     3.4726736638
          2
Energy: -0.43169436766286834 Kcal/mole
 Xe    -3.5401586108     1.5044289892     2.1069468737
 Xe    -1.6105763332    -2.0181537873     0.3655474450
          2
Energy: -0.4315596874403296 Kcal/mole
 Xe     4.1557920359    -4.8968599672     2.0885671410
 Xe     4.1729634623    -5.3478286066    -2.2639012507
          2
Energy: -0.43220681408722755 Kcal/mole
 Xe     5.6173155173     0.1456429798    -7.3214202980
 Xe     5.2151452705    -2.3900929395    -3.7652196644
          2
Energy: -0.4326870497564495 Kcal/mole
 Xe    -2.7422389185    -4.4754849028     2.8302324179
 Xe     1.1245882815    -2.3354316165     3.2236105777
          2
Energy: -0.3554640987160632 Kcal/mole
 Xe    -0.9863291472    -3.8714180786    -4.3112696762
 Xe     0.7084668036     0.6220819868    -3.7013285721
          2
Energy: -0.43299999904091707 Kcal/mole
 Xe    -1.2599926982    -3.5847253342    -4.4033556017
 Xe     0.0282820379     0.5836908672    -3.7149925817
