          2
Energy: -0.017075496115219743 Kcal/mole
 Xe     4.9589712455     1.0594138062    -3.9100306044
 Xe     4.9534197139    -2.0196438231     3.9951384892
