          2
Energy: -0.4329999998869727 Kcal/mole
 Xe     0.0315082392    -4.0395921621    -0.5957283901
 Xe    -0.8369784281    -3.7915105540     3.7278198088
