          5
Energy: -0.006917732494460669 Kcal/mole
 He    -6.4291484403    -4.8143496200    -5.9329754787
 He     5.5578259433     3.7030869186     0.3614517759
 He     3.1783529399    -0.6008494809    -2.3029558253
 He     5.6235748050     1.9687165961     3.9687684809
 He    -0.8553879779     0.4000467911     1.6279407283
          5
Energy: -0.02989021538547763 Kcal/mole
 He    -4.2336644565     3.0512883278     4.5692117130
 He    -2.8633766685     0.3699163665     3.7555454442
 He    -2.7109695270    -3.1355636318     3.1911681511
 He    -0.0144353806     2.5622612825    -1.9831052037
 He     0.0214816547     4.2376950781     6.3745398790
          5
Energy: -9.917727950538471E-5 Kcal/mole
 He    -4.7118731971    -6.6887143913     2.1049518946
 He     5.0957668557    -6.5789810066     5.6933063617
 He    -5.9067160129     4.2992728424    -7.4754208930
 He    -6.7262266683     3.4425238576     3.7932508958
 He     2.0374391987     5.7520276336     2.6505755168
          5
Energy: -0.03377973694942867 Kcal/mole
 He    -3.7183035985     0.2442202484     7.2132564951
 He    -1.2674327564    -5.1040973279    -6.0561720592
 He     1.7040340737     6.2659997550     3.8061984404
 He    -6.8445081473    -1.3753960062     7.4193691321
 He    -3.7915442697    -1.9869647830     5.1054265909
          5
Energy: -7.685380876977649E-4 Kcal/mole
 He     3.8718864654    -6.6424698349     1.6518652232
 He    -0.6836823848     4.1581889600     5.5582257398
 He    -6.6245426316     6.2660128207     5.3334791726
 He     4.3755423176     3.4140309314    -4.9831449796
 He     6.0320675787     3.1117372670     1.3534563176
          5
Energy: -0.00892731591250891 Kcal/mole
 He    -1.6134552928     6.9367583908    -7.3366245305
 He     0.4490917860     5.1287736200     0.1732880036
 He     6.4765957065     7.1380288578     6.2599074960
 He    -1.1939286237     1.7010120645     0.8130171343
 He    -4.6177137749     4.8869751829     2.1436775180
          5
Energy: -0.018980064659027858 Kcal/mole
 He    -3.5354405334     4.3832055980     4.5714361716
 He     1.9175274368    -2.1590553536     4.9505816284
 He     2.1983366960    -3.3768871846     2.5551031159
 He     1.7138132011     2.5016013259     2.3629567758
 He     6.4677854734    -5.2941540860     7.4449832102
          5
Energy: -0.007648287376735582 Kcal/mole
 He    -6.0328778780    -2.2054965418    -3.4593034008
 He    -3.3957806863     5.2998674039     5.2086225031
 He     0.6600695708     5.8097579897     3.4468595802
 He    -2.3059510826    -7.3838702816     0.6212253432
 He    -0.7471460527    -4.1279151866    -1.3837874019
          5
Energy: -0.14374514234441943 Kcal/mole
 He    -6.8526674077    -1.2013994502    -5.2785280493
 He    -5.5522598809    -2.9832837476    -7.1001135502
 He    -4.3660629577    -1.4206104712    -3.9654271985
 He    -4.0229910891    -0.2216676391    -6.8894253363
 He    -5.8180217233    -4.0504727544    -4.2086155585
          5
Energy: -0.18201971092092803 Kcal/mole
 He    -6.8254845240    -1.4294795565    -5.0425169776
 He    -5.2835830316    -2.9342483553    -6.9593362278
 He    -4.1158521426    -2.1390025349    -4.4551889110
 He    -4.6653052967    -0.1825445268    -6.4818319586
 He    -6.1550383598    -4.1576963578    -4.5204997889
