          5
Energy: -0.022954474907781415 Kcal/mole
 He    -2.3968363571     0.0518773415    -0.4648149790
 He    -6.6136382171    -6.2975065306     1.0582715527
 He    -6.1636566215    -3.1605260612     4.4431196383
 He    -0.0802394044    -1.2327249309    -5.6044289262
 He    -3.2082175432    -2.7149929540     3.7958517584
          5
Energy: -0.004848873614748285 Kcal/mole
 He    -0.5504657361     0.5312680924     1.6478736347
 He     1.8402174940     2.1623533559    -1.2791869721
 He     7.0701138317    -4.7270483466    -7.1286640420
 He    -7.0712337352     5.6907498164    -4.5725974145
 He     1.5533657029    -5.3733499805    -3.8412783638
          5
Energy: -0.02077435543324013 Kcal/mole
 He    -1.9491136286     4.8919107568     7.2368458955
 He     4.2125609811     0.5620949346    -1.6773521399
 He    -0.9952879533    -3.5467194990     1.0288344318
 He    -5.8607371931    -5.5296133054    -4.6378364843
 He    -4.9699966735    -5.7890727664    -1.8407693029
          5
Energy: -0.008510016530576415 Kcal/mole
 He     4.3073115192     6.1687581577     5.2864533762
 He     1.9355830301    -4.1792692362    -0.0769780274
 He    -5.9491224006    -0.0066936390    -6.0197849470
 He     0.9947213168     7.4667999432     6.1582425537
 He    -2.4280223586     5.1849059192    -4.1092778612
          5
Energy: -0.028033514788069484 Kcal/mole
 He     4.1947158851     3.6569564826    -2.9385026007
 He    -2.7556696648     2.1690184683    -5.6970997562
 He    -2.2348432940    -3.9012852808    -6.1154710180
 He    -0.4586673862    -0.1769536004    -6.0330110113
 He    -4.0050535728     4.7595321648    -3.5489572001
          5
Energy: -0.016926899292151378 Kcal/mole
 He    -5.5344922431     1.3064874619     7.3889169080
 He    -6.6039352649    -0.5635826188     3.4795199457
 He     1.1763184380    -3.0135232185    -3.3663938959
 He     3.0985387281    -5.6842175363    -3.5717114971
 He    -6.6976713505     3.4644755908    -0.8767856437
          5
Energy: -0.010681515892917146 Kcal/mole
 He     1.0519584019     0.9869229378     4.6708769774
 He     6.5629541658    -4.8381266669     4.3614765355
 He    -6.4643259770     6.5020174899     5.2104724525
 He    -3.8549125645     6.0545917823     2.9289701111
 He    -3.9528098901    -1.3572533718    -4.3381186144
          5
Energy: -0.03968039164167588 Kcal/mole
 He    -5.3714622864     0.4872098140    -3.3109317367
 He    -3.8074266115     6.9453564638    -1.8010494996
 He    -2.5006832676     1.3726596137    -3.5871529188
 He     0.5726713288     3.2272376990    -4.6581375672
 He    -5.8023669789    -2.0965066662    -3.0687518240
          5
Energy: -0.15821800197452823 Kcal/mole
 He    -4.3365548080     1.4377329788    -2.1356556054
 He    -6.0189330673     1.2038980082    -5.1431443337
 He    -4.5106085020     3.6477545791    -3.8995790833
 He    -5.1177778499     4.1090103632    -0.8031511044
 He    -6.9565600550     2.6697768052    -2.8207438151
          5
Energy: -0.18197768490399377 Kcal/mole
 He    -4.4115414663     1.4725546759    -2.1826681151
 He    -5.5069627044     1.1108292478    -4.8181454297
 He    -4.6037204057     3.6890538243    -3.9989543874
 He    -5.2163188981     4.0528352585    -1.2239886421
 He    -6.9907527841     2.5585520194    -2.8654772013
