          2
Energy: -0.06899999996635203 Kcal/mole
 Ne    -4.0114253327    -5.0713157782    -6.2884350712
 Ne    -5.4212929986    -4.1674941143    -3.6554624246
