          2
Energy: -0.06899999993219291 Kcal/mole
 Ne    -0.1811876525     0.9030388604    -0.0847743863
 Ne     0.0577300097     3.6870217334     1.3043275780
