          2
Energy: -0.06899999996215524 Kcal/mole
 Ne    -2.9746471966    -0.5278340982    -1.1313118037
 Ne    -4.8762460934     1.9156815537    -1.5189973085
