          2
Energy: -0.06899999995583604 Kcal/mole
 Ne    -6.9357218048    -4.5192603114    -5.4752578989
 Ne    -5.9931338279    -1.9104080027    -6.9044361347
