          2
Energy: -4.579903375113798E-5 Kcal/mole
 Ne    -2.9745584673    -4.8581198120     3.0386599982
 Ne     3.0324348812     4.1719867488    -1.7576805256
