          2
Energy: -3.559452057230286E-4 Kcal/mole
 Ne    -6.6987279602    -3.4486642354    -6.7780703268
 Ne    -6.4765252984     3.7670823905    -2.4359368408
          2
Energy: -2.6816124534945746E-5 Kcal/mole
 Ne     2.9480806967     3.8060306056    -0.1185711362
 Ne    -2.5629162837    -7.2957027056     3.6873636072
          2
Energy: -6.969799679072375E-5 Kcal/mole
 Ne    -0.2194185918    -2.1420039607    -0.2751277899
 Ne    -0.1503475523     6.5084119071     6.6114558826
          2
Energy: -5.852640688173425E-4 Kcal/mole
 Ne    -0.6877749273     3.7294044647     4.7755805191
 Ne     5.5236894246     5.4812485535     0.4788828916
          2
Energy: -1.85422930439964E-4 Kcal/mole
 Ne    -2.1538311438     4.2545575836     6.3313238453
 Ne    -3.5857631730    -5.0021514660     5.6353760799
          2
Energy: -1.5623863431344086E-4 Kcal/mole
 Ne    -6.5214043436     2.5038842603     5.3892967431
 Ne    -1.1035327443    -0.3598287173    -2.0842018148
          2
Energy: -2.097734490031151E-5 Kcal/mole
 Ne    -6.3528694043    -5.6248375223    -4.9232772185
 Ne    -2.4033230405     6.8096526411    -1.4262330499
          2
Energy: -0.0648248889710768 Kcal/mole
 Ne     1.3304408200    -0.8426462388    -1.9099973231
 Ne    -1.2546750837    -1.3071124031    -3.3763997248
          2
Energy: -1.1663713521999258E-5 Kcal/mole
 Ne     6.9693420963     0.0838892779    -4.8588480746
 Ne    -3.4882352117     4.3563036342     4.8499177996
          2
Energy: -0.06899999993219291 Kcal/mole
 Ne    -0.1811876525     0.9030388604    -0.0847743863
 Ne     0.0577300097     3.6870217334     1.3043275780
