          2
Energy: -3.714209607214787E-5 Kcal/mole
 Ne    -6.9550112278    -0.3816686013    -3.1634647613
 Ne     3.5744604935    -6.5181851502    -4.6731195947
          2
Energy: -0.013807275571942293 Kcal/mole
 Ne     4.6101905903    -5.9511362738    -3.9171573054
 Ne     1.8565644820    -3.0992653607    -1.7074433391
          2
Energy: -6.9496393917042035E-6 Kcal/mole
 Ne    -4.0557486512     0.2435050777    -6.9566019197
 Ne     6.8595776132     5.1012137259     4.0403463588
          2
Energy: -0.03878286063564833 Kcal/mole
 Ne    -7.1220835477     0.8064114356    -1.5694534276
 Ne    -3.9765868523     2.7283338241    -2.1917842616
          2
Energy: -5.81329568814896E-5 Kcal/mole
 Ne    -4.1988630539    -5.6304253842    -7.0846949267
 Ne     1.2521661566     4.3779400741    -7.1356845408
          2
Energy: -1.4018656844751135E-5 Kcal/mole
 Ne    -7.3542921820     1.8851021611     2.3625861573
 Ne     6.2106290842    -1.4444003935     6.0488349545
          2
Energy: -4.272582830077038E-4 Kcal/mole
 Ne     5.7183562894    -4.8296059068    -4.9450253204
 Ne     6.8893500488    -1.0221486766     2.1897905901
          2
Energy: -6.334286698702363E-4 Kcal/mole
 Ne    -4.0217429201     6.5092691216    -0.4967297499
 Ne     0.6266914696     5.9892522580     5.5586078861
          2
Energy: -0.04909876105750727 Kcal/mole
 Ne    -3.8072600907    -4.6796206793    -6.6071934810
 Ne    -5.7872327715    -4.0939498051    -3.7221133756
          2
Energy: -0.06899999996635203 Kcal/mole
 Ne    -4.0114253327    -5.0713157782    -6.2884350712
 Ne    -5.4212929986    -4.1674941143    -3.6554624246
