          4
Energy: -0.4139758517935851 Kcal/mole
 Ne    -5.7624940185    -5.0372286491     0.4995080882
 Ne    -5.8564988674    -7.0969093983    -1.8413933156
 Ne    -3.3882855530    -7.0021322762     0.0618183824
 Ne    -3.8830757045    -4.6851303010    -1.9723583624
