          4
Energy: -0.028655974012129742 Kcal/mole
 Ne     3.2760562175    -4.6971121030    -5.0386076506
 Ne    -2.1209434414     5.7949778922     7.1015822359
 Ne     7.2932874898     5.6687085934    -3.9604441194
 Ne     4.0257598066    -5.2307621161    -1.1714323709
          4
Energy: -0.006349567065956846 Kcal/mole
 Ne     3.5306787675     1.4107403679     3.8337077658
 Ne    -0.7842818360     3.6158275189    -2.2545987713
 Ne    -3.2874674296    -4.0034615280    -0.6124314217
 Ne     2.1255021958    -4.4572271737     1.3774500314
          4
Energy: -0.0021834566943085233 Kcal/mole
 Ne    -4.2100016284     4.7748959535     4.8520696238
 Ne     5.6392474564     0.0034161141    -0.6389188436
 Ne     6.2641034794    -4.1652573356     4.5678067075
 Ne     5.8907992136     5.9309015817     4.7089772199
          4
Energy: -0.0016130081470505432 Kcal/mole
 Ne    -0.2828114410    -3.1330643243    -7.3842276429
 Ne    -5.8678143343    -6.6424310701    -7.0604501088
 Ne    -7.1081183442    -3.9728774877     4.5236181114
 Ne     6.5575336726     7.3367843063    -1.4009134898
          4
Energy: -0.013719853719569896 Kcal/mole
 Ne     7.4707882238    -6.2804045072     2.9655624447
 Ne     3.1324191616    -2.9034641886    -1.5401147729
 Ne    -5.9820613596     0.5686081773     2.0458837196
 Ne     7.3521346413    -1.3768208363     0.8180566137
          4
Energy: -0.010112491109869951 Kcal/mole
 Ne    -3.7504736502     6.0892622608     4.0662270246
 Ne     2.4765305711     0.8975316444    -3.3931023714
 Ne     4.3946170310     4.9285732104    -1.4030174336
 Ne    -6.5441506581     6.1131118128    -2.9041970024
          4
Energy: -0.012622521345418723 Kcal/mole
 Ne     3.9511525180     1.2228848818    -6.6887398352
 Ne     2.2054407143     4.2586948642    -2.6587352962
 Ne     7.4674110084     4.8307857508    -2.4496268246
 Ne    -6.3166030712     7.2895244220     7.3065274027
          4
Energy: -0.06748263990033078 Kcal/mole
 Ne     3.9367891481    -2.5610344155    -0.7411370542
 Ne    -6.2950361868    -3.8303605057    -6.1728395695
 Ne     0.9692193118     5.8988342935    -3.2454485895
 Ne    -6.8637578814    -1.4994059791    -4.0294213811
          4
Energy: -0.12728285390863114 Kcal/mole
 Ne     0.4069992868    -2.7175294751     4.5721594656
 Ne    -6.0991743534    -4.3655636379     6.0380725729
 Ne    -4.5197633259     1.3001722790     6.3424039499
 Ne    -6.4722279288    -1.4123956271     5.3556269828
          4
Energy: -0.41377632717672047 Kcal/mole
 Ne    -3.9836173613    -2.4159143038     3.8189633821
 Ne    -7.0022338629    -1.7714627829     4.1632202298
 Ne    -4.9257433743     0.5471433839     4.0583203901
 Ne    -5.0343615712    -1.2972316112     6.5457246144
