          4
Energy: -0.41392176838492467 Kcal/mole
 Ne    -2.3991434017    -1.7845503702    -2.2682276659
 Ne    -0.2884232797    -4.0752820146    -2.0746790807
 Ne     0.2708285190    -1.6169462954    -3.9017360485
 Ne     0.3117210164    -1.2823267600    -0.8002991237
