          4
Energy: -0.005189512777678946 Kcal/mole
 Ne    -4.3759662191    -1.3942203008    -2.9184766483
 Ne     3.7789930367    -3.5232051165     3.2745878976
 Ne     3.3948757382     4.4517220613     1.9991466674
 Ne     1.4749166264     0.2996283293    -2.8686754915
