          4
Energy: -0.4138601604054089 Kcal/mole
 Ne    -5.3754712612    -3.2017544493    -1.7772178132
 Ne    -3.2148168162    -4.9857250760    -0.3838948722
 Ne    -2.3513168649    -2.5389773146    -2.1242123149
 Ne    -3.7403765075    -2.0680923699     0.6401174823
