          4
Energy: -0.41377632717672047 Kcal/mole
 Ne    -3.9836173613    -2.4159143038     3.8189633821
 Ne    -7.0022338629    -1.7714627829     4.1632202298
 Ne    -4.9257433743     0.5471433839     4.0583203901
 Ne    -5.0343615712    -1.2972316112     6.5457246144
