          32
Energy: -130.72630679062988 Kcal/mole
 H      3.1908252299    -0.5168875252    -1.8615504522
 F      2.8297944493    -0.7948304787    -1.0657530596
 H      1.1068523135     6.2863690140    -0.5208346423
 F      1.3132714540     6.1834912267     0.3666879204
 H      3.8649184380     4.1093827023     1.6267191075
 F      4.1216756649     3.5982027473     0.9100184865
 H      1.5238032699     4.3677928532    -4.3527350650
 F      1.9272861932     5.1173470590    -4.0117672906
 H      1.0221828517     4.7033711975     1.0142647090
 F      0.9059471634     3.8204079200     1.2327918595
 H      3.5076630954     3.2193294547    -2.5981467728
 F      3.8701026931     2.7304564415    -3.2840984584
 H      2.6891751347     4.3850852689     3.4323611005
 F      3.2141283186     4.9186007293     2.9025739658
 H      1.7735490647     2.4520494335     3.8351214972
 F      1.8335551848     3.2564686272     4.2712384842
 H      2.2900948081     0.4278120903    -0.1377738876
 F      2.0195865129     1.1568161186     0.3482995522
 H      0.8745828128     2.3235641105    -3.9611721281
 F      0.7678485531     2.9165174695    -4.6524774962
 H      1.8816417142     1.0665343425     1.9954383503
 F      1.7911360301     1.0651535980     2.9079600293
 H      3.2608964166     3.7916321176    -0.4853996445
 F      2.7815010154     3.9076630176    -1.2584493710
 H      0.1670311144     3.0770884542    -0.0556389557
 F     -0.2524704282     2.7977323991    -0.8217118310
 H      0.6430768556     1.8915589138    -1.8728588199
 F      1.1364566526     1.5140484219    -2.5473595275
 H      1.1226351326     5.9361665744    -2.8157499821
 F      0.6701141644     6.3175864515    -2.1152982346
 H      3.9256153423     1.0741692592    -3.2727357776
 F      3.9373879445     0.1619241782    -3.1802191953
          32
Energy: -130.72941346035842 Kcal/mole
 H      3.2036331596    -0.5151099314    -1.8549798167
 F      2.8291150182    -0.7949247759    -1.0661016166
 H      1.0915726589     6.2869176771    -0.5170702258
 F      1.3140820043     6.1834621214     0.3664882268
 H      3.8583366028     4.1142381922     1.6263118661
 F      4.1144018423     3.6087240041     0.9053576381
 H      1.5438948680     4.3576041644    -4.3392838206
 F      1.9392723601     5.1081031780    -3.9909781081
 H      1.0250857038     4.7050344620     1.0227287850
 F      0.9057931738     3.8203196877     1.2323428598
 H      3.4846276736     3.2369774397    -2.6312310077
 F      3.8425957419     2.7524620613    -3.3226011764
 H      2.7013167783     4.3897224933     3.4486308608
 F      3.2134842325     4.9183547353     2.9017108926
 H      1.7482513578     2.4510784902     3.8412117203
 F      1.8348971697     3.2565201335     4.2709154120
 H      2.2755900149     0.4276371124    -0.1452944321
 F      2.0203559586     1.1568254008     0.3486984997
 H      0.8673924081     2.3156404774    -3.9669711109
 F      0.7682299875     2.9169377999    -4.6521698735
 H      1.8889987182     1.0889680844     1.9963658677
 F      1.7855247861     1.0713040478     2.9073379459
 H      3.2443005132     3.7808977438    -0.4770328664
 F      2.7823813897     3.9082324514    -1.2588932092
 H      0.1475791462     3.1029061152    -0.0566567721
 F     -0.2614126437     2.7920899699    -0.8162672246
 H      0.6537409838     1.8937106967    -1.8596335807
 F      1.1380858232     1.5014749148    -2.5322777421
 H      1.1552388402     5.9427258931    -2.7971674453
 F      0.6683846130     6.3172384948    -2.1162839952
 H      3.9253202738     1.0725110613    -3.2877496160
 F      3.9374035972     0.1620121418    -3.1794227458
          32
Energy: -130.73895309367964 Kcal/mole
 H      3.2334210090    -0.5318964416    -1.8369916696
 F      2.8638255178    -0.8013542248    -1.0422082551
 H      1.0847795836     6.3003735817    -0.5105901870
 F      1.2783353402     6.1932568018     0.3793261936
 H      3.8490696830     4.1115177864     1.6248582966
 F      4.1148934310     3.6088683153     0.9054347466
 H      1.5465182017     4.3594426736    -4.3483058522
 F      1.9276466734     5.1252468326    -4.0178908435
 H      1.0144813047     4.7016494633     1.0036338711
 F      0.9063557126     3.8204992541     1.2333558009
 H      3.4678027427     3.2058850060    -2.6136572225
 F      3.8039825765     2.7237980749    -3.3175494800
 H      2.7050904985     4.3842276317     3.4516496757
 F      3.2137174131     4.9127698169     2.9013490122
 H      1.7904669746     2.4337030912     3.8777794765
 F      1.8828433350     3.2395219477     4.3055780022
 H      2.2935399751     0.4301558831    -0.1393502707
 F      2.0194037547     1.1566917858     0.3483831757
 H      0.8898499965     2.3285604197    -3.9652562467
 F      0.7790099053     2.9205495700    -4.6567418359
 H      1.8866647515     1.0861294823     2.0212006543
 F      1.7779653567     1.0650563471     2.9314914675
 H      3.2535151640     3.8009039390    -0.4795495849
 F      2.7818925738     3.9071711689    -1.2587597031
 H      0.1432443604     3.0867690021    -0.0563199991
 F     -0.2716602298     2.8072288762    -0.8248253660
 H      0.6472368558     1.9172720243    -1.8621644446
 F      1.1498766794     1.5276281052    -2.5227852315
 H      1.1293984009     5.9261195268    -2.8131510179
 F      0.6609577607     6.3133284906    -2.1264767247
 H      3.9200461560     1.0735312899    -3.2779822216
 F      3.9376833770     0.1619580210    -3.1799408835
          32
Energy: -130.74548164536125 Kcal/mole
 H      3.2279484867    -0.5277431998    -1.8352209339
 F      2.8727616184    -0.8065794537    -1.0371096434
 H      1.0748933067     6.2919566565    -0.5386738275
 F      1.2645608379     6.1935721273     0.3530860684
 H      3.8500931188     4.0948485341     1.6365783299
 F      4.1148391401     3.6097525806     0.9048130259
 H      1.5431492219     4.3618555627    -4.3499803179
 F      1.9278253900     5.1251188344    -4.0178020169
 H      1.0072452627     4.7054141843     1.0151235105
 F      0.9067395680     3.8202995443     1.2327463021
 H      3.4968156337     3.2071277349    -2.5980635021
 F      3.8482903429     2.7198431945    -3.2908176471
 H      2.7170386942     4.3790900160     3.4575632622
 F      3.2130835890     4.9130423555     2.9010353101
 H      1.8126705627     2.4528984594     3.8607869122
 F      1.9021075298     3.2460512591     4.3122275673
 H      2.2968553380     0.4238363543    -0.1278760496
 F      2.0192278824     1.1570270222     0.3477744948
 H      0.8786640388     2.3245466964    -3.9670092985
 F      0.7796032945     2.9207624888    -4.6566488405
 H      1.8887724855     1.0875915921     2.0127948718
 F      1.8034764306     1.0778137632     2.9257669290
 H      3.2510095588     3.7964693724    -0.4786558972
 F      2.7820254904     3.9074064124    -1.2588071112
 H      0.1433995782     3.1080887418    -0.0645162050
 F     -0.2716684637     2.8060979133    -0.8243905763
 H      0.6350526739     1.9003038928    -1.8684352284
 F      1.1107474494     1.4987251814    -2.5417390372
 H      1.1100048405     5.9278859401    -2.8278130196
 F      0.6384546183     6.3043282128    -2.1372910407
 H      3.9441264253     1.0763910364    -3.2719105539
 F      3.9341981392     0.1648708096    -3.1723048049
          32
Energy: -130.74507797924582 Kcal/mole
 H      3.2369739268    -0.5415056026    -1.8358335377
 F      2.8722828396    -0.8058493900    -1.0370771461
 H      1.0484130910     6.2937005018    -0.5342785481
 F      1.2543659211     6.1959804174     0.3539349493
 H      3.8541172567     4.1065718970     1.6301221362
 F      4.1146256689     3.6091306833     0.9051555121
 H      1.5452789559     4.3665668927    -4.3629625865
 F      1.9277124126     5.1248689093    -4.0171133376
 H      0.9993551546     4.7182188561     0.9977456861
 F      0.8868820165     3.8356763863     1.2199113498
 H      3.4989234490     3.2019843511    -2.5934161173
 F      3.8481785282     2.7201160391    -3.2910641801
 H      2.7337727113     4.3785821954     3.4749373028
 F      3.2380522749     4.9050563976     2.9186855288
 H      1.8071871638     2.4531955806     3.8629887591
 F      1.8931299554     3.2543301966     4.3008085436
 H      2.3018352890     0.4309408598    -0.1357683069
 F      2.0189637075     1.1566501446     0.3481931608
 H      0.8866491260     2.3329656635    -3.9610081076
 F      0.7791797040     2.9203158820    -4.6569671898
 H      1.9123942809     1.0730943487     2.0199151587
 F      1.8369550183     1.0657089056     2.9337769496
 H      3.2455827448     3.8055030988    -0.4741973734
 F      2.7823133703     3.9069271941    -1.2590436256
 H      0.1435392995     3.1156616649    -0.0676487225
 F     -0.2716758756     2.8056961872    -0.8242244034
 H      0.6283186059     1.8945257762    -1.8698097083
 F      1.1111046762     1.4990316971    -2.5416661243
 H      1.1172358039     5.9201619052    -2.8185129560
 F      0.6380710324     6.3047379550    -2.1377843876
 H      3.9435769344     1.0531277945    -3.2682280525
 F      3.9568106631     0.1417040383    -3.1681250801
          32
Energy: -130.72984378043571 Kcal/mole
 H      3.2324463582    -0.5472297186    -1.8397498480
 F      2.8725230167    -0.8055457389    -1.0368693949
 H      1.1153964189     6.2977010243    -0.5477948763
 F      1.3282918355     6.1954849357     0.3382730741
 H      3.8693673882     4.1068165922     1.6352461768
 F      4.1138166846     3.6091177028     0.9048836936
 H      1.5049973288     4.3837666761    -4.3740006401
 F      1.8792906941     5.1513894914    -4.0400115833
 H      1.0214976598     4.7186749752     0.9853088740
 F      0.8807322515     3.8422802601     1.2155400690
 H      3.4827628176     3.2063886246    -2.5930583908
 F      3.8553872389     2.7208787008    -3.2759347740
 H      2.7364636318     4.3975140089     3.4659632821
 F      3.2439796738     4.9166845944     2.9058040456
 H      1.8331112386     2.4462185931     3.8716230339
 F      1.8917547431     3.2547003097     4.3003505153
 H      2.2919687180     0.4260031537    -0.1339951993
 F      2.0194871063     1.1569120785     0.3480991015
 H      0.8996490397     2.3199181246    -3.9762182298
 F      0.8040926070     2.9109437915    -4.6708020110
 H      1.9343858835     1.0752559022     2.0183186656
 F      1.8655728256     1.0584016532     2.9325777631
 H      3.2377660047     3.8060426328    -0.4715378040
 F      2.7620322623     3.9006716959    -1.2497484097
 H      0.1382469463     3.1045267793    -0.0603254249
 F     -0.2713951285     2.8062868672    -0.8246128875
 H      0.6265966192     1.9013148637    -1.8751039687
 F      1.1111960236     1.4986715517    -2.5413852760
 H      1.0915091513     5.9484410096    -2.8454032235
 F      0.6310129758     6.3140746381    -2.1417383017
 H      3.9248462997     1.0393288027    -3.2853617673
 F      3.9120475875     0.1265219425    -3.1987082683
          32
Energy: -130.73842401893754 Kcal/mole
 H      3.2234076387    -0.5517874813    -1.8451816661
 F      2.8730024999    -0.8053039601    -1.0365812495
 H      1.1014534981     6.3213342366    -0.5295508127
 F      1.3125412551     6.2101264063     0.3558664772
 H      3.8589610462     4.1408919314     1.6314984466
 F      4.1178154897     3.6412890152     0.9074264175
 H      1.5146490684     4.3893436143    -4.3660503951
 F      1.8746607453     5.1670129632    -4.0396902011
 H      1.0069046964     4.7256594574     1.0056921559
 F      0.8808825709     3.8427820189     1.2190811261
 H      3.4904241223     3.2167815653    -2.5964041748
 F      3.8549808244     2.7203273794    -3.2757572878
 H      2.7385130477     4.3962717598     3.4561800769
 F      3.2153776738     4.9418684520     2.8942073215
 H      1.8329268912     2.4377003424     3.8718199825
 F      1.9215594067     3.2441885633     4.2991489271
 H      2.3013012104     0.4280252088    -0.1316806611
 F      2.0189920391     1.1568048132     0.3479763206
 H      0.8895761150     2.3119097767    -3.9817959269
 F      0.8046269524     2.9113686159    -4.6705061271
 H      1.9372083605     1.0731619338     2.0184996333
 F      1.8654230997     1.0585127334     2.9325681632
 H      3.2562605067     3.8101452477    -0.4949977313
 F      2.7756465688     3.9191172696    -1.2683180667
 H      0.1336119991     3.1081625485    -0.0592845911
 F     -0.2711492553     2.8060939980    -0.8246681013
 H      0.6436292196     1.9169958451    -1.8700766614
 F      1.1315239240     1.5155523078    -2.5346749189
 H      1.0773731692     5.9734251625    -2.8293672652
 F      0.6160545738     6.3457475090    -2.1297600726
 H      3.9308995585     1.0472974078    -3.2695216509
 F      3.9360496243     0.1344825578    -3.1821630431
          32
Energy: -130.7486039465134 Kcal/mole
 H      3.2217930229    -0.5475374303    -1.8538784230
 F      2.8747380608    -0.8114833832    -1.0471725365
 H      1.1055659479     6.3412534775    -0.5237806595
 F      1.3123032193     6.2313588568     0.3628262844
 H      3.8411846895     4.1412478166     1.6326303254
 F      4.0775915463     3.6228072735     0.9141456691
 H      1.5133700158     4.3793124651    -4.3552228653
 F      1.8851658697     5.1432512961    -4.0101803961
 H      1.0242954002     4.7333344717     1.0057969138
 F      0.9294901531     3.8445788969     1.2107712865
 H      3.4985951548     3.1912420475    -2.5799556805
 F      3.8640988286     2.7165564109    -3.2741959926
 H      2.7349803677     4.3991200948     3.4588020445
 F      3.2352493931     4.9446936464     2.9175355647
 H      1.8542794146     2.4462805989     3.8523189616
 F      1.9204267047     3.2437334005     4.3001834112
 H      2.2983278539     0.4356897755    -0.1448125509
 F      2.0191497688     1.1563982256     0.3486729370
 H      0.8984681393     2.3179432670    -3.9777419611
 F      0.8041552511     2.9110485532    -4.6707211806
 H      1.9352278851     1.0601385901     2.0182353794
 F      1.8655281594     1.0592035917     2.9325821813
 H      3.2026182322     3.7770244346    -0.4648503073
 F      2.7373092020     3.8684071027    -1.2497233635
 H      0.1529445856     3.1086283920    -0.0700288545
 F     -0.2721748043     2.8060692861    -0.8240981429
 H      0.6448513236     1.9057972517    -1.8625603936
 F      1.1314590942     1.5161463673    -2.5350736395
 H      1.1001772870     5.9897578561    -2.8146594426
 F      0.6659033741     6.3938341405    -2.1153615627
 H      3.9089087246     1.0555720744    -3.2848220841
 F      3.8909656938     0.1423064333    -3.2041194420
          32
Energy: -130.75375698662373 Kcal/mole
 H      3.2672215115    -0.5275494138    -1.8271446343
 F      2.9306220027    -0.7918676225    -1.0161417642
 H      1.1045294277     6.3457803133    -0.5229646630
 F      1.3123582043     6.2311187186     0.3627829977
 H      3.8361746856     4.1340647925     1.6360999208
 F      4.0778573154     3.6231883163     0.9139616151
 H      1.5128393348     4.3828156070    -4.3510461883
 F      1.8854361504     5.1386975840    -3.9895174206
 H      1.0276391147     4.7427441562     0.9810359274
 F      0.9230131111     3.8613613135     1.2114848026
 H      3.4938927149     3.1903937402    -2.5818714929
 F      3.8643482822     2.7166014116    -3.2740943632
 H      2.7368001561     4.4079739565     3.4692231914
 F      3.2351528575     4.9442239695     2.9169827469
 H      1.8677679734     2.4388264225     3.8751052872
 F      1.9080902840     3.2472980887     4.3059610361
 H      2.2965800711     0.4235828357    -0.1377997104
 F      2.0054341644     1.1527704521     0.3359180126
 H      0.9024176716     2.3149238662    -3.9808900292
 F      0.8039457375     2.9112087254    -4.6705541829
 H      1.9846624869     1.1009890384     1.9936345125
 F      1.9753800742     1.0717202736     2.9101202877
 H      3.2354891940     3.7932171314    -0.4765627218
 F      2.7639676559     3.8904989156    -1.2570066298
 H      0.1429962898     3.1093617340    -0.0600639183
 F     -0.2747835334     2.7975978541    -0.8144857515
 H      0.6493521943     1.9109641504    -1.8623341939
 F      1.1312203334     1.5158722753    -2.5350856389
 H      1.0817693857     5.9674861797    -2.8076006061
 F      0.6385349225     6.3784763895    -2.1180215621
 H      3.9053174774     1.0553818451    -3.2876371778
 F      3.8911562012     0.1423165246    -3.2039701078
          32
Energy: -130.76176320140513 Kcal/mole
 H      3.2448229180    -0.5250011699    -1.8352380029
 F      2.9318101963    -0.7920028010    -1.0157124297
 H      1.0946888620     6.3499462681    -0.5200434635
 F      1.3128802235     6.2308977243     0.3626280348
 H      3.8341726405     4.1310007689     1.6375861479
 F      4.0779635193     3.6233508557     0.9138827742
 H      1.5259581419     4.3673251901    -4.3309936307
 F      1.8847402280     5.1395193148    -3.9905811625
 H      1.0572637869     4.7397614073     1.0001092630
 F      0.9404392054     3.8556701890     1.2137063955
 H      3.5064350667     3.2069331415    -2.5868260266
 F      3.8636829394     2.7157240346    -3.2738315366
 H      2.7269657022     4.3983969533     3.4505360834
 F      3.2356745526     4.9447320074     2.9179740548
 H      1.8461309627     2.4335430745     3.8419611166
 F      1.8759527755     3.2462457065     4.2656521496
 H      2.3000705864     0.4247198989    -0.1373895481
 F      2.0052490006     1.1527101335     0.3358962544
 H      0.9038116325     2.3128921372    -3.9710896892
 F      0.8058777758     2.9113721085    -4.6589266493
 H      1.9787675131     1.0855870036     1.9936929701
 F      1.9479992797     1.0651927048     2.9099496963
 H      3.2316901885     3.8151343924    -0.4728845889
 F      2.7682316885     3.9100467665    -1.2584333525
 H      0.1740099114     3.1316714148    -0.0804337545
 F     -0.2529015501     2.8240307868    -0.8314283271
 H      0.6535459947     1.9192394296    -1.8642604736
 F      1.1309978620     1.5154332909    -2.5349834542
 H      1.0890476106     5.9905702225    -2.8036266246
 F      0.6366784346     6.4090970089    -2.1245931515
 H      3.9058346776     1.0564724855    -3.2745624274
 F      3.8911287649     0.1422586686    -3.2046636931
          32
Energy: -130.75725813576173 Kcal/mole
 H      3.1987891739    -0.5393342058    -1.8590688714
 F      2.8593823672    -0.8050090159    -1.0496808836
 H      1.0809579368     6.3349342326    -0.5184255178
 F      1.3136086174     6.2316940781     0.3625422065
 H      3.8601099385     4.1191672517     1.6310966327
 F      4.1199842945     3.6195328637     0.9074117583
 H      1.5029688497     4.3831578432    -4.3413089211
 F      1.8859597568     5.1386794291    -3.9900339602
 H      1.0631848289     4.7401721536     1.0051984968
 F      0.9401251078     3.8556483999     1.2134364234
 H      3.4867047087     3.2015491128    -2.5935920273
 F      3.8647295893     2.7160096449    -3.2734726159
 H      2.7292173199     4.4013023779     3.4556284205
 F      3.2355551095     4.9445778813     2.9177039181
 H      1.8446594443     2.4380965005     3.8334490376
 F      1.8760308361     3.2460041577     4.2661036957
 H      2.2757670420     0.4294791209    -0.1636956994
 F      1.9929385420     1.1583339853     0.3155408040
 H      0.8630371026     2.3290872437    -3.9644940394
 F      0.7605697342     2.9249056105    -4.6539792910
 H      1.9839142062     1.0822996327     1.9938140667
 F      1.9477262595     1.0653670923     2.9099432724
 H      3.2442953347     3.8154022504    -0.4804337608
 F      2.7675630146     3.9100325573    -1.2580328864
 H      0.1683540764     3.1262437732    -0.0750585659
 F     -0.2526015211     2.8243187107    -0.8317134684
 H      0.6581441687     1.9141837090    -1.8580108261
 F      1.1307539395     1.5157014852    -2.5353149836
 H      1.0906890591     5.9912023874    -2.7942096035
 F      0.6401269195     6.4000425723    -2.1081101488
 H      3.9077395639     1.0555092196    -3.2857784110
 F      3.8910277151     0.1423097676    -3.2040687110
          32
Energy: -130.75446592411544 Kcal/mole
 H      3.1953238548    -0.5401614620    -1.8607833807
 F      2.8595661943    -0.8049651319    -1.0495899328
 H      1.1019131991     6.3457478024    -0.5223507153
 F      1.3124969891     6.2311204432     0.3627504292
 H      3.8695679259     4.1299047561     1.6269181072
 F      4.1194825702     3.6189632639     0.9076334194
 H      1.5061755838     4.3835157006    -4.3455325205
 F      1.8857896470     5.1386604456    -3.9898099080
 H      1.0548456880     4.7374513135     0.9976049929
 F      0.9510106189     3.8526572529     1.2149681656
 H      3.4973285072     3.2043857684    -2.5898155117
 F      3.8641660213     2.7158591669    -3.2736729513
 H      2.7268705989     4.4058653811     3.4579966320
 F      3.2356795976     4.9443358245     2.9175782899
 H      1.8479778933     2.4450355708     3.8423331526
 F      1.8885508270     3.2465909232     4.2859003448
 H      2.2737945071     0.4328099572    -0.1698672676
 F      1.9930431804     1.1581572921     0.3158681915
 H      0.8937436720     2.3181722697    -3.9807255906
 F      0.7803021338     2.9173469357    -4.6655684463
 H      1.9670106941     1.0683698879     1.9801249680
 F      1.9296729728     1.0648585444     2.8963577796
 H      3.2358805422     3.7990945016    -0.4774932534
 F      2.7680093999     3.9108976457    -1.2581888735
 H      0.1579006395     3.1357022043    -0.0645909768
 F     -0.2521252387     2.8369862498    -0.8284866226
 H      0.6635973856     1.9247810148    -1.8605559050
 F      1.1304646590     1.5151393226    -2.5351799730
 H      1.1059233721     5.9880405422    -2.7820213223
 F      0.6393187744     6.4002103009    -2.1087567090
 H      3.9017810813     1.0552349745    -3.2897320944
 F      3.8913437988     0.1423243157    -3.2038589773
          32
Energy: -130.7609534706446 Kcal/mole
 H      3.2212921309    -0.5463682310    -1.8515429512
 F      2.8581886373    -0.8046358772    -1.0500801163
 H      1.1015167428     6.3613787074    -0.5200835747
 F      1.3125180202     6.2302912598     0.3626301626
 H      3.8746492838     4.1245464317     1.6324277483
 F      4.1192130159     3.6192475106     0.9073411457
 H      1.5183925641     4.3643789499    -4.3215119611
 F      1.8777632551     5.1275913639    -3.9620004626
 H      1.0614031661     4.7338783701     0.9866209087
 F      0.9506627599     3.8528467893     1.2155508459
 H      3.5074001566     3.2088373889    -2.5780388126
 F      3.8680762099     2.7208806701    -3.2655706483
 H      2.7176176553     4.4071264210     3.4658686457
 F      3.2351868490     4.9322910405     2.9206959646
 H      1.8418529137     2.4457461977     3.8416549294
 F      1.8888757431     3.2465532261     4.2859363230
 H      2.2680439801     0.4295253892    -0.1682357668
 F      1.9933482326     1.1583315309     0.3157816441
 H      0.9001684654     2.3019842891    -3.9842077903
 F      0.8224025755     2.9054842313    -4.6702320508
 H      1.9372852078     1.0805763956     1.9759791876
 F      1.9063109946     1.0777662633     2.8924516101
 H      3.2448661784     3.8107229736    -0.4702006215
 F      2.7775183955     3.9110648504    -1.2527647131
 H      0.1720526237     3.1276874597    -0.0692503195
 F     -0.2528759688     2.8374114135    -0.8282394553
 H      0.6496236488     1.9250005811    -1.8705906494
 F      1.1312059334     1.5151276751    -2.5346476530
 H      1.0910198957     5.9724667219    -2.7824523887
 F      0.6401093694     6.4010364561    -2.1087338419
 H      3.9040572122     1.0562180171    -3.2781437120
 F      3.8912230553     0.1422721676    -3.2044737142
          32
Energy: -130.74177507568126 Kcal/mole
 H      3.1947511618    -0.5329374996    -1.8586251434
 F      2.8595965744    -0.8053483464    -1.0497044223
 H      1.0996603308     6.3484685406    -0.5214544546
 F      1.3126164986     6.2309761143     0.3627028846
 H      3.8702925475     4.1191138491     1.6347051511
 F      4.1194441307     3.6195356965     0.9072203347
 H      1.5226385296     4.3621087041    -4.3209022283
 F      1.8775380164     5.1277117952    -3.9620328075
 H      1.0619453240     4.7440103844     1.0006218416
 F      0.9657977248     3.8539856322     1.1993693687
 H      3.4971626027     3.2110189458    -2.5850795575
 F      3.8686192885     2.7207649435    -3.2651971530
 H      2.7227166254     4.4070671236     3.4706055367
 F      3.2349163604     4.9322941861     2.9204446835
 H      1.8567383648     2.4454160967     3.8409377819
 F      1.8880861043     3.2465707372     4.2859743660
 H      2.2798080349     0.4444558323    -0.1705536449
 F      1.9946572146     1.1743635878     0.3056949016
 H      0.9083067109     2.3029059578    -3.9843710271
 F      0.8219708604     2.9054353389    -4.6702233915
 H      1.9892443958     1.1038783759     1.9731574105
 F      1.9647648694     1.0933361587     2.8897699865
 H      3.2433696005     3.8127370547    -0.4690537360
 F      2.7775977855     3.9109580081    -1.2528255527
 H      0.2014991444     3.1294806839    -0.0876899912
 F     -0.2484600415     2.8463211697    -0.8348488903
 H      0.6438637028     1.9193170347    -1.8673860932
 F      1.1162400829     1.5054374853    -2.5355576836
 H      1.1018540054     6.0060403706    -2.7948981630
 F      0.6694940349     6.4285288678    -2.1053640263
 H      3.9136707737     1.0561400553    -3.2767618830
 F      3.8907130781     0.1422763033    -3.2045470170
          32
Energy: -130.74388407791824 Kcal/mole
 H      3.2049239028    -0.5222427096    -1.8506253189
 F      2.8590569340    -0.8059156803    -1.0501287945
 H      1.0888520711     6.3673692361    -0.5014758210
 F      1.2903857983     6.2390035795     0.3838463887
 H      3.8534374134     4.1198184258     1.6282122097
 F      4.1203382566     3.6194983204     0.9075647703
 H      1.5128970162     4.3577122512    -4.3111778407
 F      1.8893404474     5.1233489442    -3.9750531653
 H      1.0508260504     4.7414114928     0.9846275745
 F      0.9663875766     3.8541234974     1.2002178276
 H      3.4980897174     3.2075780781    -2.5821095544
 F      3.8685701072     2.7209474736    -3.2653547048
 H      2.7199384982     4.4017986720     3.4628986247
 F      3.2350637336     4.9325736653     2.9208535174
 H      1.8277245137     2.4591026982     3.8306541443
 F      1.8633152071     3.2589061438     4.2777970197
 H      2.2618862595     0.4308374594    -0.1597225821
 F      1.9956079233     1.1750860110     0.3051203388
 H      0.8738065448     2.3264476869    -3.9591612271
 F      0.7833466293     2.9215903783    -4.6509062527
 H      1.9538182509     1.1229230216     1.9640667803
 F      1.9188253719     1.1030461438     2.8801832621
 H      3.2522357082     3.7905569922    -0.4775337652
 F      2.7771274589     3.9121346092    -1.2523757068
 H      0.1866080474     3.1337439876    -0.0805429545
 F     -0.2476701032     2.8460950113    -0.8352280241
 H      0.6466647192     1.9134237332    -1.8618134491
 F      1.1160914954     1.5057501113    -2.5358532995
 H      1.1136007006     6.0082427715    -2.7887440674
 F      0.6688708999     6.4284120355    -2.1056904869
 H      3.9300839060     1.0581990086    -3.2751447709
 F      3.9390533133     0.1455851910    -3.1860124562
          32
Energy: -130.75556300166875 Kcal/mole
 H      3.2073936867    -0.5369726215    -1.8557466533
 F      2.8266116409    -0.8081622181    -1.0668548760
 H      1.0875261523     6.3632799558    -0.5017558707
 F      1.2904561352     6.2392205064     0.3838612447
 H      3.8754082761     4.1312905055     1.6279358352
 F      4.1191727531     3.6188897531     0.9075794313
 H      1.4875660132     4.3837214295    -4.3102098843
 F      1.8693916377     5.1445788379    -3.9693371860
 H      1.0346748941     4.7460315715     1.0268270409
 F      0.9196619163     3.8615611868     1.2398367908
 H      3.5013587864     3.2214467969    -2.5904244600
 F      3.8683966907     2.7202117701    -3.2649136183
 H      2.7130547776     4.4002447227     3.4547218140
 F      3.2354288991     4.9326560987     2.9212872783
 H      1.8112301777     2.4616354946     3.8323310117
 F      1.8537452225     3.2618599437     4.2781138085
 H      2.2496484168     0.4365653139    -0.1754177500
 F      1.9962571126     1.1747821616     0.3059529312
 H      0.8835213701     2.3211595330    -3.9611112075
 F      0.7773755131     2.9254371899    -4.6426319852
 H      1.9461825761     1.1071182830     1.9615553860
 F      1.9161535370     1.0875331005     2.8778542878
 H      3.2488356430     3.8096209365    -0.4727282106
 F      2.7773078246     3.9111233110    -1.2526306304
 H      0.1591353178     3.1429509165    -0.0689231083
 F     -0.2462127384     2.8456066050    -0.8358444301
 H      0.6768953054     1.9321143725    -1.8559749087
 F      1.1469004490     1.5142879640    -2.5233617959
 H      1.1062587196     5.9976137704    -2.7868547167
 F      0.6692603750     6.4289758795    -2.1057907126
 H      3.9349547358     1.0496790803    -3.2790799066
 F      3.9393973844     0.1373326626    -3.1869209296
          32
Energy: -130.7555934854605 Kcal/mole
 H      3.1837928604    -0.5442822125    -1.8691241848
 F      2.8278636102    -0.8077744612    -1.0661452288
 H      1.0866648550     6.3696161635    -0.5006458792
 F      1.2905018250     6.2388843852     0.3838023623
 H      3.8570235339     4.1173785924     1.6312139364
 F      4.1201480212     3.6196277479     0.9074055356
 H      1.4888972888     4.3813762653    -4.3064332276
 F      1.8693210167     5.1447032435    -3.9695375289
 H      1.0343905769     4.7474027989     1.0091309292
 F      0.9247547082     3.8622356660     1.2220819169
 H      3.5022496877     3.2076211503    -2.5799016386
 F      3.8683494304     2.7209451887    -3.2654718297
 H      2.7453519133     4.3986369255     3.4829271963
 F      3.2337156107     4.9327413886     2.9197910479
 H      1.8770686546     2.4454293621     3.8685493317
 F      1.9554435805     3.2330267687     4.3316224319
 H      2.2666076197     0.4329752021    -0.1604097481