          3
Energy: -1.2989951229081613 Kcal/mole
 Xe    -2.8147419322     4.9637296513     4.6571963854
 Xe    -4.2921778007     1.4287230606     2.4627511372
 Xe    -1.2716824002     4.0724536611     0.6174414713
