          3
Energy: -1.2989971772053495 Kcal/mole
 Xe    -0.2087445281     2.3377342621     3.8440255395
 Xe     1.5402798282     4.8551441555     0.6637453032
 Xe     2.3544316359     0.5139470250     0.7460007813
