          3
Energy: -0.06316918458383582 Kcal/mole
 Xe    -1.5266781638    -2.4334434725     1.6574424821
 Xe    -4.4888901174     4.0539598418    -2.6681810744
 Xe     3.2409368660     3.9183170798    -1.1302740728
