          3
Energy: -0.017988516252188055 Kcal/mole
 Xe     0.6588025948     0.3593190284    -5.6584986439
 Xe    -6.7963981500     1.4822864930    -1.2807810863
 Xe     5.4049448386     6.1996564215     3.2481849179
          3
Energy: -1.01009895521355 Kcal/mole
 Xe     4.0119387076    -3.1422804845     0.7742600317
 Xe     5.8012649953    -7.4258124086     1.3992602127
 Xe     3.0632454233    -5.0764351425     5.1346886881
          3
Energy: -0.873491157047882 Kcal/mole
 Xe    -1.4133315380    -3.7331322312     2.1203674883
 Xe    -0.6193482234    -2.8723467918    -2.2966543085
 Xe     3.8610777756    -3.4549568055    -3.0432855981
          3
Energy: -0.4304194802717719 Kcal/mole
 Xe     0.3395888142     2.0557901047     5.5343974932
 Xe     2.7167613341     5.8482013689     4.4120434742
 Xe    -6.4303945311    -2.6116145280     4.0947413760
          3
Energy: -1.0832146580836581 Kcal/mole
 Xe     4.2180889426    -2.5782845212    -4.2682357502
 Xe     6.3439899255     1.8990862422    -3.6740641598
 Xe     4.7435361210    -1.0297054940    -0.0803789848
          3
Energy: -0.9798759160276481 Kcal/mole
 Xe     2.7046408951     3.1284568998    -2.0345153649
 Xe    -1.5597359121     1.8295765430    -1.6087663554
 Xe     2.8072535786     3.0363817724     2.4344254006
          3
Energy: -1.2318204856901556 Kcal/mole
 Xe    -0.9634585738     1.4452167352     6.7128078104
 Xe    -3.9550670872     4.7282440834     6.0144642255
 Xe    -5.1481634669     0.1018705877     6.2595429157
          3
Energy: -1.1309727844173474 Kcal/mole
 Xe    -2.8290024412     0.6402452616     1.5254175576
 Xe    -5.1847293240     2.9204875559    -2.3191985447
 Xe    -1.3443698719     3.9763632302    -0.8587712854
          3
Energy: -1.296165589897583 Kcal/mole
 Xe    -2.4889364185     4.7774271960     4.8097845777
 Xe    -4.1831345029     1.3638055702     2.5133264191
 Xe    -1.4327691160     4.1862325863     0.5976747046
          3
Energy: -1.2989951229081613 Kcal/mole
 Xe    -2.8147419322     4.9637296513     4.6571963854
 Xe    -4.2921778007     1.4287230606     2.4627511372
 Xe    -1.2716824002     4.0724536611     0.6174414713
