          3
Energy: -1.2989912463257218 Kcal/mole
 Xe    -2.3682602988    -1.6137766701     1.0729800810
 Xe    -6.7378328901    -0.9815205205     1.1282510971
 Xe    -4.1301009582     1.7904079741    -1.1167107818
