          3
Energy: -1.2989736930810927 Kcal/mole
 Xe    -2.7268573793    -7.4381963256    -5.7668351803
 Xe    -1.7150453320    -5.6708965625    -1.8523873363
 Xe    -0.1529180354    -3.8559441437    -5.5678763329
