          5
Energy: -0.5166028926488461 Kcal/mole
 Kr    -2.3463981455     5.6174589080    -6.4950145554
 Kr     7.4891092226     4.7714819911    -0.7290945284
 Kr     3.2696835979     7.3236239739    -1.1715958552
 Kr     5.2985037845    -1.3098576263     2.3902157739
 Kr    -6.1066593431     6.9400169444    -6.5529411337
          5
Energy: -0.8529690437118885 Kcal/mole
 Kr    -3.8296031368     6.9734948963    -4.4135335567
 Kr    -4.1688705253    -5.2263351231     1.2884867629
 Kr    -1.3653862304     7.1870705715    -0.6588374946
 Kr    -5.3875060828     5.7440106220    -0.5860873238
 Kr     3.3544981722     7.7902598713     5.9172770519
          5
Energy: -0.9558018396508879 Kcal/mole
 Kr     3.1912257474     4.7326034331    -4.3870983602
 Kr     6.4109732512     7.9941556073    -8.2295272288
 Kr     2.6508015894     0.5441285822    -6.0227576688
 Kr     2.2174652571     7.2078601977    -1.2879814687
 Kr    -0.8580472342    -1.6508759603    -7.1222594100
          5
Energy: -2.2416378225563895 Kcal/mole
 Kr     3.1394112718     2.4211354064    -0.3804469816
 Kr     1.8088654377     8.0558640038    -3.0747765024
 Kr     4.5575088305     6.5102085545    -0.3186484741
 Kr     0.6073065518     5.6215340815    -0.0595641111
 Kr     4.9019479609     4.4303854010     3.2824549146
          5
Energy: -2.482894489466812 Kcal/mole
 Kr     3.9141181207     6.4866423921     2.8540381975
 Kr     2.5477668361     3.7172045679     6.2460633677
 Kr     0.0313642871     6.1557577720     3.5881256098
 Kr     3.3827918853     2.6790974161     2.4559697107
 Kr     1.6218040961     5.6088000192    -0.1170442646
          5
Energy: -2.4906792618068683 Kcal/mole
 Kr     2.5598412577     1.8194645411     7.2122804019
 Kr     2.4880230931    -2.2741740031     7.7495517471
 Kr     4.4370942566    -0.1679115161     4.1044318113
 Kr     3.5140414881     3.7598217359     3.4319065594
 Kr     0.2689666019    -0.2298721331     4.6769807170
          5
Energy: -2.3236924597942687 Kcal/mole
 Kr     0.8376398384    -6.0135141852     4.2892637928
 Kr     1.8464967831    -2.8099965756     6.8037176696
 Kr    -2.3168612058    -3.9584806355     2.9080720720
 Kr    -1.1704241882    -0.7328746855     4.9289156434
 Kr    -1.2635655253    -4.9953824871     7.3914719959
          5
Energy: -2.8047411748065154 Kcal/mole
 Kr     2.6725370976    -3.3988012517     5.2470513447
 Kr     0.6065840303     0.0182603798     6.5602246680
 Kr     4.1512625408     0.1845282293     4.2509271623
 Kr     0.6912957940    -0.9750101089     2.5405164656
 Kr    -1.3514662707    -3.1749989723     5.5307046641
          5
Energy: -2.8257474319732756 Kcal/mole
 Kr     1.2586506201    -6.0695508323     0.8656811572
 Kr     0.5045676934    -5.0220591345     4.8837064433
 Kr     1.6836819249    -2.1432747797     2.1867225154
 Kr    -1.9789049873    -3.9627766112     1.7449867010
 Kr    -1.7964968032    -7.9620956218     2.8725733363
          5
Energy: -2.885096126207697 Kcal/mole
 Kr     1.3513120904    -6.0906224693     0.8878208040
 Kr     0.6177672066    -5.0974616266     4.7730124251
 Kr     1.6303345443    -2.2231975794     2.0780578018
 Kr    -2.0131133055    -3.9687529776     1.8822412103
 Kr    -1.6673606853    -7.8910689342     2.8992665201
