          5
Energy: -2.885096126207697 Kcal/mole
 Kr     1.3513120904    -6.0906224693     0.8878208040
 Kr     0.6177672066    -5.0974616266     4.7730124251
 Kr     1.6303345443    -2.2231975794     2.0780578018
 Kr    -2.0131133055    -3.9687529776     1.8822412103
 Kr    -1.6673606853    -7.8910689342     2.8992665201
