          5
Energy: -0.4142761565608232 Kcal/mole
 Kr     3.7985283964     6.9215926365    -1.0374265712
 Kr    -6.9012312696    -4.9118884768     0.7497910977
 Kr    -6.6012945397    -3.5505506068    -4.7795382649
 Kr    -4.1627866376    -4.1882705734    -2.1820473728
 Kr    -0.4506508355     5.9827086290    -6.4231520522
          5
Energy: -0.3009826142117762 Kcal/mole
 Kr     6.5232254555    -5.3669582507     0.0580179210
 Kr     0.8234698276    -0.6107310084    -4.9997610869
 Kr    -6.1423383361     4.9245404553     2.4086426255
 Kr    -0.6224817538     1.3170732996     3.7029744464
 Kr    -2.7629264430    -0.7969103219    -1.8862411696
          5
Energy: -0.2022372248241627 Kcal/mole
 Kr     7.1180805274    -6.6688642230    -6.7008534433
 Kr    -2.6437558686    -7.8756555458     6.9848527323
 Kr     5.0461512318     3.3941594580     4.1463572125
 Kr     4.8560985399    -0.7182750844    -7.4388457329
 Kr    -7.4603106940    -6.7931024949     7.6463183444
          5
Energy: -0.021398948839536722 Kcal/mole
 Kr     6.7847226081     4.3805208313     0.6298948532
 Kr    -5.4040980767    -8.1299836259    -0.3446682671
 Kr    -3.1120555656    -1.2460752667     1.5974760776
 Kr    -7.2525581121     6.2401833355    -6.3529636367
 Kr     4.2441017864    -6.8372361966     7.7749084807
          5
Energy: -1.236531634829575 Kcal/mole
 Kr    -4.5279676967     5.8084884681    -7.3790044259
 Kr    -4.0934207687    -2.0465560794    -6.0830796489
 Kr    -2.0002800139    -5.2109204982    -5.6396164856
 Kr    -7.5350573081    -4.9551448414    -5.5518230397
 Kr    -4.9264836808    -7.7472960760    -6.0881982456
          5
Energy: -1.4597199110449868 Kcal/mole
 Kr     1.5637433505    -3.9492922499    -1.9222436166
 Kr     8.1327805179    -8.0992663350    -4.6278643991
 Kr     4.0374185481    -4.2386382636    -4.7383338595
 Kr     1.2405426973    -7.5583840357    -3.9611355516
 Kr     7.4644816312    -4.8594702310    -2.8981993027
          5
Energy: -2.1443929494959173 Kcal/mole
 Kr     4.0476135112    -3.7966988644    -6.0580618813
 Kr     7.8155612262    -2.8659073946    -7.0654634281
 Kr     4.7376924399     0.0039195747    -7.6334710867
 Kr     4.1448553908     0.4048074562    -3.6115731300
 Kr     6.8969964115    -5.1897524543    -3.8680176591
          5
Energy: -2.0698410750869405 Kcal/mole
 Kr     0.7427354589    -0.2873045318    -1.4166882986
 Kr     2.9949047793    -0.7810081490     2.1758480324
 Kr    -1.5742680579    -1.5479321892     1.5384639116
 Kr     1.2155352003    -4.2741230751     0.2796728045
 Kr     0.7431617108    -3.2654442276    -4.9476345908
          5
Energy: -2.833481124309243 Kcal/mole
 Kr     0.2132609837    -3.5745850180     2.0039199591
 Kr    -3.2997875175    -4.2151684499     0.0022668778
 Kr     0.2499105362    -5.0745925245    -1.8414238285
 Kr    -1.0863309621    -7.4328307012     1.2410107955
 Kr     2.7606524394    -6.3000646649     0.9437501387
          5
Energy: -2.8855381548847423 Kcal/mole
 Kr     0.2012933492    -3.5469058902     1.9432409495
 Kr    -3.2842079762    -4.1976915379    -0.0279469644
 Kr     0.2499105362    -5.0745925245    -1.8414238285
 Kr    -1.0682686050    -7.3579060309     1.2570769979
 Kr     2.8697075479    -6.4511655498     0.9583171298
