          5
Energy: -2.8850701686483307 Kcal/mole
 Kr    -6.6508303011     2.6206524928    -0.2100400537
 Kr    -8.1124784056     6.3804381008    -0.7574349536
 Kr    -6.5250179578     4.3383906119    -3.8933258739
 Kr    -3.3960348753     2.1120672275    -2.5676817638
 Kr    -4.1287839745     5.7488262787    -0.8954255536
