          5
Energy: -2.8855381548847423 Kcal/mole
 Kr     0.2012933492    -3.5469058902     1.9432409495
 Kr    -3.2842079762    -4.1976915379    -0.0279469644
 Kr     0.2499105362    -5.0745925245    -1.8414238285
 Kr    -1.0682686050    -7.3579060309     1.2570769979
 Kr     2.8697075479    -6.4511655498     0.9583171298
