          5
Energy: -0.08891264746263167 Kcal/mole
 Kr    -7.6416628063     0.1076174215     3.8596809606
 Kr    -4.6716795273     4.9941066280     4.2363887604
 Kr     6.1309764115    -0.8535415953     5.1668617905
 Kr    -4.0920019834     1.2101456591    -4.3421793486
 Kr     6.4745688140    -4.8255452182    -6.2916591142
          5
Energy: -0.04710185266132997 Kcal/mole
 Kr    -0.9712845885     8.2393165382     2.6659512169
 Kr    -5.2908323987    -3.3842578233     3.9992930254
 Kr    -6.3459990410     2.3823892858     7.9780900726
 Kr     2.1151683659    -3.8545462152    -3.4682276680
 Kr     8.0042989497     0.3412436859    -5.1094378413
          5
Energy: -0.567082978366423 Kcal/mole
 Kr     5.3675385619    -6.4008189371     4.5922225614
 Kr    -2.2530292962    -7.0042022341    -1.2843184839
 Kr    -1.6034327322    -6.2753217667    -4.9836277245
 Kr     4.8035519451     7.2502388755    -2.1803298946
 Kr     2.2898849353    -6.1473352936     7.4772548604
          5
Energy: -0.24775601360610958 Kcal/mole
 Kr    -5.1933164200    -0.4519533539     0.9959533023
 Kr     1.7533013420     0.4524650010    -7.4531957195
 Kr     1.5327517189    -7.4133613117     6.9764449073
 Kr     1.5403652547     4.5304287521    -3.0114639233
 Kr    -1.8400105282     4.8363817246     0.8710333325
          5
Energy: -0.08849668406645471 Kcal/mole
 Kr    -6.2768760940     0.1405594045     0.3718718499
 Kr    -1.0295174168     6.6041141278    -5.1620166412
 Kr    -1.7622735221    -8.1833967112    -4.6742408805
 Kr     5.7709855358    -0.2903643958    -3.6835929853
 Kr    -1.6784080673     7.5065140532     0.5462210225
          5
Energy: -1.4969362277513745 Kcal/mole
 Kr    -6.2777542372     1.4726203536    -4.9627162807
 Kr    -5.1307219050    -4.2472148283    -0.2755577084
 Kr    -2.4806455051     0.2147163215    -2.1595085420
 Kr    -6.1489241763    -3.3663388784    -4.0864583862
 Kr    -6.9722768630     0.3648994465    -1.5787802140
          5
Energy: -2.2219291241488857 Kcal/mole
 Kr    -4.7677787987     0.5221468070    -2.8065985656
 Kr    -0.6860724994     0.2724492462    -4.7739625398
 Kr    -1.1430182991     3.2950260760    -2.4829073857
 Kr    -2.6339571956     3.9786180524    -5.8579050917
 Kr    -4.9094799464     4.5763404843    -1.7855556647
          5
Energy: -2.7482675294421592 Kcal/mole
 Kr    -6.8141354543     3.4492175429    -0.8993127150
 Kr    -4.3288752337     2.9006324005    -4.2376863917
 Kr    -4.7433628970    -0.3284790789    -1.8221261735
 Kr    -5.6052878656     0.8857001474     2.0617928732
 Kr    -2.7914470844     2.6039045565    -0.2435066131
          5
Energy: -2.7069122577645723 Kcal/mole
 Kr    -6.5667580392     2.5646231997    -0.2540867598
 Kr    -8.0935753433     6.5991359320    -0.5981487326
 Kr    -6.2593548358     4.1475765343    -3.8580484438
 Kr    -3.3569179920     1.8592459349    -2.6101163980
 Kr    -4.0677712684     5.5132565605    -0.7210503630
          5
Energy: -2.8850701686483307 Kcal/mole
 Kr    -6.6508303011     2.6206524928    -0.2100400537
 Kr    -8.1124784056     6.3804381008    -0.7574349536
 Kr    -6.5250179578     4.3383906119    -3.8933258739
 Kr    -3.3960348753     2.1120672275    -2.5676817638
 Kr    -4.1287839745     5.7488262787    -0.8954255536
