          6
Energy: -0.07471052303105821 Kcal/mole
 Kr    -1.4600326471     0.9590142788     5.7874895191
 Kr     5.0317900424     6.4288080502     5.3316412309
 Kr     0.1791720771     0.3180803689    -6.1935786410
 Kr    -3.9004848038    -4.3403386762    -2.2915953162
 Kr     4.2376457797    -5.3160443788    -2.9783934209
 Kr    -3.0523397337     6.0842145437    -1.3272761484
