          6
Energy: -4.028836004142438 Kcal/mole
 Kr     2.9052190497    -6.0009162710    -3.2873058066
 Kr     1.8197554110    -6.1504191854     0.6247055267
 Kr     3.5777553404    -9.3475543863    -1.1145657891
 Kr    -1.0079087206    -6.1336512353    -2.2463160578
 Kr     0.7332665609    -9.3500598035    -3.9808365482
 Kr    -0.3442854390    -9.4948892024    -0.0993825160
