          6
Energy: -0.6002927987443871 Kcal/mole
 Kr     2.7312582152    -2.7736751753     3.0150549408
 Kr    -3.8661111965     4.9117489407     2.7284311541
 Kr    -6.6461222090     9.9126928809     8.1306147557
 Kr    -0.9518197597    -1.9287566903     2.7215070595
 Kr    -1.9909273171    -8.1679833063    -6.6156689809
 Kr     3.0049846706    -0.3028413567     0.2396437582
          6
Energy: -0.5075843167894682 Kcal/mole
 Kr    -5.3452728980     1.9780966769    -7.3276898076
 Kr     1.9012552425     9.6824361914    -0.8033144487
 Kr    -2.8541219390    -1.8052161646    -5.4251518411
 Kr     8.3743137671    -6.4255868614     3.2950341469
 Kr    -1.1853859746    -3.6216513607    -8.8065738579
 Kr    -4.3662512962     4.0060613129     5.6329921866
          6
Energy: -1.0032108178012065 Kcal/mole
 Kr     4.4767456496     5.7556547380    -9.8747422847
 Kr     1.7810889522     0.7012289895     5.3717269184
 Kr     2.6915794033     4.1411928197     3.0562216985
 Kr     5.8476269257     6.2523135557    -6.1361192195
 Kr     8.8607290821     2.0285291357    -1.5572083247
 Kr     4.7684585656    -0.4958489654     1.4372784180
          6
Energy: -3.373755979512084 Kcal/mole
 Kr     3.6644893484    -4.1794918382    -6.2680673798
 Kr     6.6103114026     1.2931403874    -5.0722201377
 Kr     3.0495248703    -0.3172798147    -6.0340336077
 Kr     5.6594329766    -0.7738731350    -8.8488532899
 Kr     5.0016300016    -2.9436576159    -2.8460663492
 Kr     7.7072808753    -2.9821148022    -5.7216930726
          6
Energy: -3.151741690756211 Kcal/mole
 Kr     3.9589089539    -3.4033156421    -8.2713385165
 Kr     7.7648330405    -1.9273571201    -8.8884541672
 Kr     4.7472151823     0.4860669664    -8.0682130000
 Kr     8.5578440624    -3.8392463342    -5.5273851174
 Kr     6.7679847214    -0.1865119274    -4.8848990854
 Kr     7.9540599029     2.7594739861    -7.6486879847
          6
Energy: -3.5178461394473506 Kcal/mole
 Kr     4.3765433177     0.8705161862    -8.5852411520
 Kr     6.6054706873    -1.0530143270    -5.5654397792
 Kr     4.4851635797     4.9327693555    -8.2869009620
 Kr     7.8104827746     3.5576317109    -3.0567942257
 Kr     4.3455315033     2.5636005432    -5.1154654710
 Kr     7.6265190676     2.5505081457    -7.2211022345
          6
Energy: -3.1177080960466372 Kcal/mole
 Kr     6.1161975364    -4.3575212423    -5.1028576955
 Kr     8.5797680620    -1.2253820776    -4.6285177119
 Kr     4.3816024573    -1.7942262865    -9.2479594957
 Kr     4.1031806290    -0.2684962482    -4.1216901501
 Kr     8.1220645565    -3.0620576064    -8.3698251199
 Kr     7.1110184504     0.7073977667    -7.4317258173
          6
Energy: -3.626294463871557 Kcal/mole
 Kr     6.2785729862    -1.4400229138    -3.7883257697
 Kr     9.2505904495    -4.1924088422    -3.0171853048
 Kr     6.5933433032     0.0075692524    -7.5297816198
 Kr     3.6564820630    -2.9826606109    -6.6803067779
 Kr     8.0072700894    -3.6048410221    -7.2241980909
 Kr     9.9067099275    -0.8573244128    -5.3051087518
          6
Energy: -3.7421133587521886 Kcal/mole
 Kr     6.0641736020    -1.0640926096    -5.3415744090
 Kr     9.0385881298    -2.9542629565    -6.8803141501
 Kr     6.0107477964     2.5055801878    -7.2989464767
 Kr     4.9622183548    -1.3054280509    -9.0076861215
 Kr     8.6442878972     0.1975357487    -9.4416614923
 Kr     9.4559043839     1.0738320421    -5.7354397361
          6
Energy: -4.028507311279354 Kcal/mole
 Kr     5.8175915990    -1.0376523028    -4.9803237863
 Kr     8.6820536088    -2.8663231124    -7.1714726197
 Kr     5.8883392194     2.1036128962    -7.5155070821
 Kr     5.2346839405    -1.6473406543    -8.9444547919
 Kr     8.7206194268     0.2535994291    -9.7513303732
 Kr     9.3080355099     0.8762824179    -5.7704669558
