          6
Energy: -1.2744614400946077 Kcal/mole
 Kr    -2.8966883844    -7.1440256352     4.9330046379
 Kr     8.0704655780     4.4651283729    -5.8648142822
 Kr     4.6006093342     6.3040524973    -7.2524717867
 Kr     8.4346306619     0.6347078373    -3.9156838938
 Kr     5.4016925300     1.2547037141    -7.2429873278
 Kr    -4.6456183765    -2.6478181713    -8.7307230001
          6
Energy: -0.3397524135229298 Kcal/mole
 Kr    -2.5338057196     6.9526581350    -0.0991872087
 Kr     0.0339620844     4.0981664202    -1.5808748514
 Kr    -2.2403838085    -6.0689777681     5.2126658720
 Kr     6.9127697168     6.1967839970     3.0088460413
 Kr     1.3749953431    -5.5760948433    -4.2084305908
 Kr     8.3599237915    -1.2389836713     8.2444674941
          6
Energy: -0.7347037423985843 Kcal/mole
 Kr    -6.4783651272     0.1429281540     5.5537611918
 Kr     9.9166045196    -0.8422578094    -7.0251706153
 Kr    -3.4910476158    -0.5812017932     8.1636227090
 Kr    -3.5215435246    -7.2571456320    -3.5484811768
 Kr     1.4316067159    -8.0866473272    -2.3948130164
 Kr    -0.1739784493    -2.9673562454     6.3031566291
          6
Energy: -0.7237182874712973 Kcal/mole
 Kr     5.6711577739     9.3087638144     1.9169096826
 Kr    -3.3174856094     2.5652253770    -0.2518073762
 Kr     4.5748360252     5.7480418910     0.2948223308
 Kr     2.7544023189    -7.1417107663     0.8463899859
 Kr     4.9422860013    -7.1286672582    -5.2355884835
 Kr     4.7349629692    -3.5853163299    -1.8999836172
          6
Energy: -2.9069603069495917 Kcal/mole
 Kr     2.5186656766    -8.3760773492     0.7023756532
 Kr     0.8720772370    -3.1165728357    -2.5467861615
 Kr     6.0682799073    -7.3643612538    -1.8729057271
 Kr     4.8569746515    -4.1453863407    -0.5934284892
 Kr     4.6868475502    -4.4993983458    -4.4988758693
 Kr     1.6385912263    -6.9507585634    -3.5102465974
          6
Energy: -3.1504422027541588 Kcal/mole
 Kr    -2.8162130109    -2.6095923527    -3.5164556454
 Kr     3.5237398250    -3.6949169057     0.3343243410
 Kr    -1.4562032045    -2.9743596489     1.2032283282
 Kr     1.3545102071    -2.0506256574    -2.7269048923
 Kr     1.9599299760     0.0470973133     0.5064507193
 Kr     0.0952579198    -5.6227241091    -1.4899974951
          6
Energy: -3.275338256600766 Kcal/mole
 Kr    -1.6571165236    -2.2566778365    -2.6094574633
 Kr     1.7292761313    -1.2257768498     4.2270895439
 Kr    -1.9873510990    -3.5176976680     1.3981180249
 Kr     1.5902756714    -2.2333491303    -0.0629332881
 Kr    -0.9602594398     0.2221599574     1.7848822030
 Kr     0.2200345360    -5.8252064582    -1.8789785210
          6
Energy: -3.5387804038593003 Kcal/mole
 Kr     1.4091573401     0.3572475661    -3.9052440990
 Kr    -3.9758003895     0.7497303525    -0.0883739324
 Kr    -2.4391179228    -1.1582954506    -3.3633272497
 Kr     0.6797454732    -3.1422721620    -1.8177218316
 Kr    -0.0304110055     1.0919563451    -0.0488319718
 Kr    -2.1514121825    -2.7005391819     0.9405722763
          6
Energy: -3.7979170797873625 Kcal/mole
 Kr     1.8094765922    -1.6686331752    -1.8525236195
 Kr    -3.8001115589     0.3478936953    -5.0362617173
 Kr    -2.2352712595    -2.0024390660    -2.1325081207
 Kr    -0.5652211598     0.1768038944     0.8979887532
 Kr    -0.3676114564     1.3742369198    -3.3074366032
 Kr    -3.8761013939     1.8318435960    -1.1498818857
          6
Energy: -3.897738281929853 Kcal/mole
 Kr     1.9815679478    -1.6217823765    -2.0494582735
 Kr    -3.7613412331     0.2913826077    -5.0326897506
 Kr    -2.0780718474    -1.9337736611    -2.0845163148
 Kr    -0.2843207503     0.5330138022     0.5801021838
 Kr    -0.2565064754     1.4699345638    -3.3815013310
 Kr    -3.6849548298     1.7111619602    -1.2449024645
