          6
Energy: -4.0276874260051105 Kcal/mole
 Kr     2.2536584936    -6.5818456153    -2.7635067407
 Kr     0.3784813773    -2.9884259768    -2.7819858556
 Kr     4.3184881084    -3.2489734485    -3.7704243685
 Kr     5.1014814725    -5.1537487736    -0.2501688742
 Kr     1.1780505313    -4.8834954967     0.7308392252
 Kr     3.2258256310    -1.5553068982    -0.2543045276
