          6
Energy: -0.4311079750050305 Kcal/mole
 Kr     9.7648371573    -5.2794553648     6.4536997946
 Kr    -8.0188203479    -6.3903901077    -4.8198140059
 Kr     7.8360010647     4.9648132618     9.9049930581
 Kr     6.2091605805    -8.8860121642     9.4949664325
 Kr    -3.8817909781    -1.3864184423    -3.8447945071
 Kr    -6.7505028335    -0.6396812354    -7.0092849751
          6
Energy: -0.8563007664867892 Kcal/mole
 Kr    -1.3669202889    -0.0577216154    -1.2949455316
 Kr     1.7647062993    -2.6020723104     0.3765257996
 Kr    -9.6869531555    -2.0820260168    -8.4414966594
 Kr     7.1074778024     4.6535444338     7.2655617160
 Kr     2.6710490985     7.2573537832     6.4991988113
 Kr    -0.2176325378    -0.2445260311     3.5367720734
          6
Energy: -0.09926583261733793 Kcal/mole
 Kr    -1.2532174508     6.7130248322    -4.6468629344
 Kr    -8.4478539255    -5.2855547484    -6.8893798954
 Kr    -1.7590520402    -2.4693760034    -0.8542846766
 Kr    -0.2543304640     9.6532932603    -9.3562742952
 Kr     9.4329016036     4.4446304351    -0.9367855193
 Kr    -7.6737097467     7.7386177548     1.8334393441
          6
Energy: -0.24607869129311638 Kcal/mole
 Kr     4.7209968572     3.2451479173     4.4501242831
 Kr     0.9935907453     8.7772800000    -7.3658491848
 Kr    -2.9829408617    -9.4515711418     3.8076762576
 Kr    -2.5687453552     5.8624230110    -8.6232524511
 Kr     4.0442316103    -6.6976755348    -7.5117971332
 Kr     8.6443115575     4.6078709518     9.1009965882
          6
Energy: -0.2847299382664011 Kcal/mole
 Kr     8.4792693357     4.4253965482     8.6562991088
 Kr     1.4201983270    -4.2727263347    -2.1708059291
 Kr     6.3394093765     5.8568830491    -5.8865654625
 Kr    -1.0762781224     8.0092731640     6.5388003731
 Kr    -2.4350530038    -4.0778649037    -2.0411520320
 Kr    -9.8250315953     1.3468810665     1.3848340866
          6
Energy: -0.8539155570300813 Kcal/mole
 Kr     7.2800283985     9.2193521408     0.9076524340
 Kr    -7.9346677634    -4.0593253441    -7.4224505737
 Kr    -4.3177710881    -5.7332435419    -9.3398821805
 Kr    -9.7884943551    -1.5813413578    -4.7666172396
 Kr    -3.6936999965    -5.2400870303    -4.2458109109
 Kr     1.8752866251    -6.7441076786     5.5652584628
          6
Energy: -3.485173499434569 Kcal/mole
 Kr    -2.8900895706    -5.9031726428    -4.1997021204
 Kr    -0.7273649419    -2.6692192355    -4.1237760250
 Kr     1.4198635333    -5.9219487107    -3.6306670104
 Kr    -2.5070958934    -2.6228813095    -0.5335573912
 Kr    -1.3389542805    -6.4909189035    -0.9618831737
 Kr     1.3921165731    -3.3133260344    -0.5813494975
          6
Energy: -3.6760689671442734 Kcal/mole
 Kr     4.0805156768    -2.5734158121    -2.8735386415
 Kr     7.1926985855    -4.2696352265    -0.4865525799
 Kr     5.3005084456    -6.6245069570    -2.8410468249
 Kr     0.5712022527    -2.6467305470    -0.8544336957
 Kr     1.4743736718    -5.5914328969    -3.5301914727
 Kr     3.1634636588    -5.2783530652     0.4884861338
          6
Energy: -3.923988399109142 Kcal/mole
 Kr     2.8158650383    -6.1965782813    -3.4493777491
 Kr     1.7895066026    -6.1060052771     0.6669904891
 Kr     3.3509998379    -9.3199240281    -1.1881527892
 Kr    -1.1079385348    -6.1297050122    -2.3949819497
 Kr     0.4869690211    -9.3329531832    -3.9689523507
 Kr    -0.4548603316    -9.4167918457     0.0516787716
          6
Energy: -4.028836004142438 Kcal/mole
 Kr     2.9052190497    -6.0009162710    -3.2873058066
 Kr     1.8197554110    -6.1504191854     0.6247055267
 Kr     3.5777553404    -9.3475543863    -1.1145657891
 Kr    -1.0079087206    -6.1336512353    -2.2463160578
 Kr     0.7332665609    -9.3500598035    -3.9808365482
 Kr    -0.3442854390    -9.4948892024    -0.0993825160
