          5
Energy: -2.129049884643242 Kcal/mole
 Ar    -1.0981167648    -2.5892836330     2.9467323165
 Ar    -3.3629703856    -2.1690964653     5.9787966138
 Ar    -3.1975574549    -5.5400712748     4.2265191541
 Ar    -0.2114188866    -4.2936470259     6.2521152602
 Ar     0.3327502323    -6.1211835556     2.9585596386
