          5
Energy: -2.128822225383926 Kcal/mole
 Ar     4.7134664690     6.6891323820     1.3743907912
 Ar     5.8030099288     3.2585897906     0.1449945024
 Ar     2.0947772255     4.0238601666     0.6432996734
 Ar     4.0183693293     5.6347990826    -2.2312101382
 Ar     3.2233507506     1.9110357413    -2.3366497006
