          5
Energy: -2.128642750317735 Kcal/mole
 Ar    -5.6079229501     4.6809600432     3.0858864104
 Ar    -3.2289755735     1.7787603971     3.9433068724
 Ar    -2.3452066485     5.3726176598     4.9564628713
 Ar    -2.2597367504     4.3355794545     1.3040446245
 Ar    -5.2016897130     3.5184521594     6.6843486950
