          5
Energy: -0.40105409675157955 Kcal/mole
 Ar     4.2214123873    -4.9172867789    -2.6407484445
 Ar    -1.5803933324    -4.2908435673     6.1301595970
 Ar    -4.8469055754    -8.1614839041    -0.3827345220
 Ar    -4.9664817023    -3.0180457257     8.1039139848
 Ar    -5.0904964745    -4.6428448240    -2.7123135470
          5
Energy: -0.24430025617936224 Kcal/mole
 Ar     0.5288498259    -2.2557388720    -7.2309870122
 Ar    -5.2870687397     3.1793542019     2.1334862773
 Ar    -4.1403793239    -8.0731683177     6.7002599502
 Ar     2.2142826679    -1.5550198191     2.4496200494
 Ar    -0.8359328499    -0.2292354275    -4.4325078171
          5
Energy: -1.3603372662186572 Kcal/mole
 Ar     0.9279292475    -4.8350303780     6.6014412012
 Ar    -2.1363497805    -3.8907619032     4.1466751559
 Ar    -1.7627790794    -0.2033646690     0.8226336611
 Ar    -0.0893372901    -0.4664266889     4.8390461688
 Ar    -4.4964192547    -0.8188681126     3.8981297641
          5
Energy: -0.40011928048761614 Kcal/mole
 Ar     6.7204366652    -2.2086778680     5.3409092934
 Ar     6.4376499912     2.3161353700     5.8401529266
 Ar     5.5758535522    -5.4749109003     6.9650053111
 Ar    -8.1736613821     3.5099241820     1.8939468186
 Ar    -6.5940989894    -2.0191315876     4.0497767147
          5
Energy: -0.4671638628777848 Kcal/mole
 Ar     1.1382914134    -1.2499852662     5.7207873636
 Ar     1.7648805651     6.5428578400     4.7009674175
 Ar    -1.1962397300     4.7074640920     6.8211492574
 Ar     4.2262770165     0.9930240008     4.0472091139
 Ar    -3.3056504039     5.3962059343    -7.4117102767
          5
Energy: -1.7577662280037931 Kcal/mole
 Ar    -0.1566991364    -3.5796882238     2.7187816424
 Ar    -3.4198544830    -4.9561368439     0.9826498484
 Ar    -0.3127267480    -4.3424726031    -1.2125683480
 Ar    -2.7390094909    -1.5757148349    -0.0579050659
 Ar    -6.0003515050    -2.0895387295     1.4508741966
          5
Energy: -1.8046079404210429 Kcal/mole
 Ar    -4.4741372989    -0.2938500772     4.1151025334
 Ar    -2.0032000082    -3.2495542461     5.8955568917
 Ar     1.4333679147    -4.2296310561     4.6701240853
 Ar    -0.1888283851    -0.9033420272     3.4382114595
 Ar    -2.9336041782    -3.4321416663     2.1657039167
          5
Energy: -2.0244330820949386 Kcal/mole
 Ar    -1.7807934902    -7.7374218636     3.8614449198
 Ar    -5.2119716692    -7.0802323136     5.2463831930
 Ar    -2.0536721553    -8.0324380465     7.5725974610
 Ar    -2.4077312436    -4.5708519659     6.1061391259
 Ar     1.0696390219    -6.4921286312     6.5187831971
          5
Energy: -2.002209754651844 Kcal/mole
 Ar    -0.7387841725    -2.3018834926     3.1456602251
 Ar    -3.3594822760    -2.4008391009     5.8987239400
 Ar    -3.3167852724    -5.3136755306     3.6462243657
 Ar    -0.1181757706    -4.3056319617     6.2833001109
 Ar     0.5431634942    -6.0086383430     3.1652099263
          5
Energy: -2.129049884643242 Kcal/mole
 Ar    -1.0981167648    -2.5892836330     2.9467323165
 Ar    -3.3629703856    -2.1690964653     5.9787966138
 Ar    -3.1975574549    -5.5400712748     4.2265191541
 Ar    -0.2114188866    -4.2936470259     6.2521152602
 Ar     0.3327502323    -6.1211835556     2.9585596386
