          5
Energy: -0.05889321935872306 Kcal/mole
 Ar    -1.5033290366     0.3183568443     4.5400720360
 Ar     5.0639497896    -8.0512068427    -0.9440940467
 Ar    -3.2463034772    -1.5050195208    -7.3079118501
 Ar     3.8933805873    -0.3883540211     4.2456321315
 Ar    -0.4252308950     7.2034834660    -3.4917135045
          5
Energy: -0.2754440676788156 Kcal/mole
 Ar     7.9660499510     0.2609819608    -0.8427529776
 Ar     5.4194218741     4.5086463817     0.8533100525
 Ar    -0.2239444940    -0.3699439874    -5.9293993628
 Ar     1.8776830167     0.2669642221    -2.0239789688
 Ar    -5.4757479885     2.3944436094    -0.7717526786
          5
Energy: -0.016949206432275075 Kcal/mole
 Ar    -5.5440144409     6.1408431221    -5.1758988715
 Ar    -1.0612000505    -5.7413972981    -2.1862823791
 Ar    -2.9222571301    -3.7337584790     5.8945479933
 Ar     5.5563681293     8.2275466656     6.3027684864
 Ar     1.4009077915     6.1375634131    -6.2558134906
          5
Energy: -0.1309884407716416 Kcal/mole
 Ar     3.1529294468    -4.9748400041    -0.3885697807
 Ar    -4.4036415443     1.6910486428    -5.5578987615
 Ar     4.2898401510    -0.9221129007    -2.6491359835
 Ar     6.2964730808     3.7235499870     2.4672759589
 Ar    -4.1598482630    -6.3454521089    -4.5562786916
          5
Energy: -0.3281977528489733 Kcal/mole
 Ar     1.9000353150     7.8916320466    -2.3570196818
 Ar     1.6154489404     5.6332095487     5.6232912957
 Ar     5.5140667809    -6.4863607827     5.9469399204
 Ar    -0.6630668283     2.1715319126     0.7167229318
 Ar    -1.8520213194     6.0161908971     4.3011834913
          5
Energy: -0.6456168566585222 Kcal/mole
 Ar    -3.4293389690    -2.4760453595    -1.3530577403
 Ar    -3.6164216380     2.1543014325     5.2467169722
 Ar    -4.9544666100     5.3196435471     7.6121240855
 Ar    -0.9449471502    -2.5038466632     2.4633541885
 Ar    -0.1014016912    -3.2266970843    -2.7653452910
          5
Energy: -1.3958580088449664 Kcal/mole
 Ar    -1.1819337346     6.4074329824     3.8710186066
 Ar    -1.7077607742     3.3081258188     6.9896352027
 Ar    -4.0957646280     8.1448071806     6.0826916694
 Ar    -3.0633601605     3.0757652562     2.7304502960
 Ar    -5.8912007938     4.5565314509     5.4367394183
          5
Energy: -1.4357350337236465 Kcal/mole
 Ar    -3.5740264308     2.5027748211     2.9947356917
 Ar    -0.5363497435     2.3154641816     7.3574308556
 Ar    -4.9139661535     1.8048724203     6.1962969910
 Ar    -3.1166036233     5.1276118826     7.5001912195
 Ar    -2.4687600205    -0.8053294149     4.3205515173
          5
Energy: -1.9955694587695791 Kcal/mole
 Ar    -5.5407316175     4.6871876374     3.0057016506
 Ar    -3.2432301031     1.8507701807     3.9379529697
 Ar    -2.4072517186     5.5766177595     4.9708325821
 Ar    -2.0937845813     4.3322789289     1.2971405903
 Ar    -5.6161984799     3.5571660928     6.8946324712
          5
Energy: -2.128642750317735 Kcal/mole
 Ar    -5.6079229501     4.6809600432     3.0858864104
 Ar    -3.2289755735     1.7787603971     3.9433068724
 Ar    -2.3452066485     5.3726176598     4.9564628713
 Ar    -2.2597367504     4.3355794545     1.3040446245
 Ar    -5.2016897130     3.5184521594     6.6843486950
