          12
Energy: -46.10515755727556 Kcal/mole
 H     -0.3922831956    -3.6134630827     1.1307193315
 F     -1.1689258527    -3.7462317910     0.6615843260
 H     -1.0956086001    -1.0626361322    -1.6790261762
 F     -0.4263208393    -0.7679714002    -2.2323033120
 H      2.4944355197    -1.5089712460    -0.3315697089
 F      2.7457566707    -2.2732870292     0.1083712674
 H     -1.8634103982    -2.4455135341    -0.0913415257
 F     -2.1149198183    -1.6804669520    -0.5299025120
 H      1.0231136154    -0.3414315736    -1.5550939000
 F      1.8004638011    -0.2092323457    -1.0869709965
 H      1.7255555796    -2.8907893184     1.2569671711
 F      1.0558401285    -3.1854358227     1.8097362478
