          12
Energy: -45.99797931832799 Kcal/mole
 H     -1.9602294256     1.1072119858    -7.1759157223
 F     -1.1475426065     1.4866575862    -6.9849964451
 H     -0.0717336886    -0.4986561927    -4.2408796725
 F     -0.5602220930    -0.8197393120    -3.5343574087
 H     -4.0050386916    -0.0562211735    -4.3219947740
 F     -4.5253259237    -0.2200278536    -5.0591226921
 H      0.0409913122     0.6758659699    -6.1465761396
 F      0.5862489538     0.1775288152    -5.6032132917
 H     -2.0341620841    -0.1399551977    -3.2067786167
 F     -2.8593044337     0.2576501124    -3.1627431754
 H     -3.8833375747     0.1138907233    -6.5496456296
 F     -3.4076104680     0.3207259137    -7.3058148725
