          12
Energy: -41.70621501529814 Kcal/mole
 H      4.1255105127     3.1690856508     1.6818758797
 F      3.7530819115     4.0043151675     1.6142179801
 H      0.8860276992     1.3449250527     3.4184825823
 F      0.5438089864     0.9601222751     2.6597321787
 H      1.7200794916     0.3895865769     1.6337948005
 F      2.4595266324     0.1639888266     1.1406289247
 H      3.8042967225     1.0014230862     1.6395045653
 F      4.4681850307     1.5618673131     1.9328364299
 H      1.8112245262     3.0698314248     4.3307188235
 F      1.6228815680     2.2258491522     4.6358578963
 H      2.7670089548     4.4103895378     2.9389425341
 F      2.1990975686     4.5261739264     3.6495476515
          12
Energy: -41.69905657361187 Kcal/mole
 H      4.0119795019     3.0090609931     1.7361094038
 F      3.7164576667     3.8717147523     1.6392366183
 H      0.8355441857     1.2811006081     3.3779576684
 F      0.5452209497     0.9368354402     2.5791567466
 H      1.7501501121     0.1493975663     1.7119086340
 F      2.4904588480    -0.1939632003     1.2936558880
 H      3.7616057496     0.7736215092     1.7211735285
 F      4.3667180488     1.3809406982     2.0465832827
 H      1.6685578304     2.8864139414     4.3349146025
 F      1.5174052784     2.0348406116     4.6396518171
 H      2.6769063554     4.2191897391     2.8871052150
 F      2.0874410386     4.3056304524     3.5842046650
          12
Energy: -41.66702316706372 Kcal/mole
 H      3.9890783236     2.9149741663     1.8928179494
 F      3.6931165613     3.7769651018     1.7914904488
 H      0.9677433119     1.0138049747     3.5292358149
 F      0.7237540918     0.4994860361     2.8103239358
 H      1.8538009282     0.0353540101     1.7035821650
 F      2.5375362531    -0.1352395935     1.1168174525
 H      3.7850955308     0.7256758667     1.7539096524
 F      4.3594255297     1.3033368928     2.1750293400
 H      1.6904928801     2.8335680465     4.4155051919
 F      1.5985064428     1.9657564208     4.6971618582
 H      2.5851131993     4.1970431724     2.9609974420
 F      1.9938462394     4.2970588606     3.6547475730
          12
Energy: -41.72213080177667 Kcal/mole
 H      4.1151942863     2.8227760643     2.1701225449
 F      3.8120461903     3.6673202482     1.9810845770
 H      0.7893873653     0.9492914747     3.5764123907
 F      0.5518984530     0.4957428845     2.8156353584
 H      1.8202509256     0.0517652304     1.8023818473
 F      2.5911502336    -0.0917867148     1.3269913805
 H      3.7987291031     0.6953718476     2.1191268031
 F      4.3703592265     1.2269068278     2.6003736907
 H      1.7309024329     2.6571381419     4.6020045055
 F      1.4672886333     1.8048385211     4.8140943944
 H      2.7495783073     4.0625491056     3.2158632900
 F      2.1748298128     4.1416295987     3.9260037294
          12
Energy: -41.702937251418746 Kcal/mole
 H      4.2456645230     2.8469899988     2.5249533379
 F      4.0164945946     3.7206865815     2.3667622340
 H      0.8837490570     1.1403038155     3.5086178839
 F      0.6499041645     0.6891796388     2.7452748788
 H      1.9534243203     0.2941746594     1.8116982666
 F      2.7125563772     0.1224269839     1.3268165736
 H      3.9243513862     0.7545975303     2.2802703581
 F      4.4382766786     1.2433245338     2.8615755361
 H      1.7004122554     2.8554513294     4.5965526674
 F      1.5150015800     1.9765171991     4.7809074233
 H      2.8689326717     4.2314577711     3.4515665845
 F      2.1949132059     4.3311843266     4.0652777331
          12
Energy: -41.68485990705585 Kcal/mole
 H      4.2342607634     2.7977860059     2.3450638675
 F      3.9835031477     3.6459465763     2.1029208002
 H      0.8541779301     0.9623200870     3.6793458093
 F      0.6037926631     0.4233708709     2.9809691485
 H      1.9420831754    -0.0635645056     2.0878884344
 F      2.7351383007    -0.2114198456     1.6518937480
 H      3.9064086301     0.6493210616     2.4082716931
 F      4.4367622611     1.2117535574     2.9015096821
 H      1.6434049142     2.9363678828     4.4429632624
 F      1.4899147682     2.0939207589     4.7710068852
 H      2.8160863172     4.2310952229     3.1343776766
 F      2.1133016503     4.3904415917     3.7014680104
          12
Energy: -41.69381847057895 Kcal/mole
 H      4.1973131473     2.7702301775     2.0445355210
 F      3.8635517714     3.5958549092     1.8258207604
 H      0.9816130395     0.9633585790     3.7232739051
 F      0.7060426467     0.3343853813     3.1155382099
 H      1.9185485250    -0.0419349480     2.0137813993
 F      2.6631052017    -0.0994748765     1.4816033165
 H      4.0026125712     0.6840859902     2.1506689829
 F      4.6233409775     1.2293717600     2.5484738029
 H      1.6205865111     2.9252655692     4.2272203740
 F      1.5996917324     2.1349848108     4.6918801755
 H      2.4942111398     4.0550312745     2.6802652317
 F      1.7320391657     4.1926927827     3.1712155256
          12
Energy: -41.76646465924597 Kcal/mole
 H      3.7688946187     2.7616052168     1.8691690995
 F      3.3002569774     3.5036930705     1.6035125948
 H      0.8849917652     1.2490967857     3.4848232530
 F      0.6751880353     0.7696256657     2.7318432798
 H      1.9346170951    -0.1462021282     2.1894841463
 F      2.7459737463    -0.5109546489     1.9668971225
 H      3.9047382999     0.6139111120     2.2951029829
 F      4.4145166736     1.3532953269     2.4803757343
 H      1.6682427323     3.0405329173     4.4690732296
 F      1.4942463175     2.1811115504     4.7374184582
 H      2.4970464465     4.2033528885     2.9191740706
 F      2.0482858528     4.4368797804     3.6840061570
          12
Energy: -41.66030693655108 Kcal/mole
 H      3.7722118721     2.6692670064     1.6967775295
 F      3.2614814573     3.4073943526     1.5091303494
 H      0.7413260436     1.3940176468     3.5205411626
 F      0.5739077713     0.9413333765     2.7408379669
 H      1.7913302496     0.0057384794     2.0559217349
 F      2.5364440178    -0.3667168238     1.6725530879
 H      3.8755741018     0.6153914098     1.9814134527
 F      4.4868886137     1.2652091367     2.1933579959
 H      1.5906347478     3.0636756679     4.4408523727
 F      1.3517667061     2.2490882258     4.7876640764
 H      2.5875245518     4.1490810524     2.8231370978
 F      2.1418342081     4.3934150544     3.5863867378
          12
Energy: -41.83378173982442 Kcal/mole
 H      3.7797869992     2.6410984407     1.7810586883
 F      3.2480771815     3.3417790817     1.5217898913
 H      0.7460359173     1.4682527910     3.4729771822
 F      0.6115032842     1.0402534867     2.6732231161
 H      1.8503520660    -0.0019926911     2.3105922859
 F      2.6241811558    -0.4740942618     2.1720367133
 H      3.8954228102     0.5697139332     2.3249257901
 F      4.4868691684     1.2616971515     2.4355577516
 H      1.6011189096     3.1627249122     4.4645863895
 F      1.2115588014     2.3935344329     4.7768009450
 H      2.6895602539     4.1121446243     2.8855833208
 F      2.3814027599     4.3959229025     3.7013025420
          12
Energy: -41.792681114229794 Kcal/mole
 H      3.8255395610     2.6686580576     1.7312415733
 F      3.3077154287     3.3882817631     1.4969577914
 H      0.6043970017     1.4431078299     3.4821149051
 F      0.4804466532     0.9862617790     2.6967379276
 H      1.7915074473     0.0126317428     2.4197952718
 F      2.5763177897    -0.4504985889     2.3174623726
 H      3.8848582616     0.5766399012     2.2816215056
 F      4.5072867338     1.2499973732     2.2894644458
 H      1.5605894437     3.1067707525     4.4540652781
 F      1.1525227493     2.3598111347     4.7952718171
 H      2.7288993524     4.0738368676     2.8793000269
 F      2.3741357470     4.3464270086     3.6797538977
          12
Energy: -41.748140284556996 Kcal/mole
 H      3.8357384033     2.6993873456     1.7275380311
 F      3.3632032327     3.4674061981     1.5609650597
 H      0.5244583817     1.5783952168     3.3873721456
 F      0.4277565371     1.1089648121     2.6055966994
 H      1.7185312105     0.0357394485     2.4562154527
 F      2.5027791766    -0.4350105414     2.3911111169
 H      3.7841442738     0.5940606031     2.2139810485
 F      4.4539750434     1.2192410186     2.1770325959
 H      1.4955851539     3.1906506605     4.4298307631
 F      0.9675985229     2.4833100178     4.6784033533
 H      2.8505143693     4.1066851653     3.0041936674
 F      2.5575191390     4.3463536106     3.8394192844
          12
Energy: -41.74860023924356 Kcal/mole
 H      3.7342775835     2.4702906553     1.5657742590
 F      3.1703915484     3.1809614711     1.4321010344
 H      0.6231952933     1.4836640172     3.4328192770
 F      0.5196360177     0.9994572651     2.6609978613
 H      1.7572473014    -0.1200201964     2.5035938505
 F      2.5363393350    -0.6022271584     2.4664313828
 H      3.8502000863     0.4366699208     2.2224797956
 F      4.4977489536     1.0760104064     2.1092843541
 H      1.6623409260     3.0362041126     4.4747253031
 F      1.1209771040     2.3556154352     4.7656088958
 H      2.8492654781     3.8914393563     2.8772267530
 F      2.6533928406     4.1506515536     3.7347417364
          12
Energy: -41.786235763130236 Kcal/mole
 H      3.8422756178     2.6622169708     1.6890471087
 F      3.2848445656     3.3597734530     1.4803018662
 H      0.6633623163     1.5166013211     3.3480866396
 F      0.5691976169     1.1145694629     2.5293117045
 H      1.8466403843     0.1103561244     2.1959723316
 F      2.6071276648    -0.3791598945     2.0445716599
 H      3.9721264040     0.6180200045     2.1515429472
 F      4.5814176384     1.3009502772     2.2086344026
 H      1.5074349520     3.1073537923     4.4062671752
 F      1.1100655074     2.3438954095     4.7226811796
 H      2.6664668266     4.0930085673     2.8613705183
 F      2.3145965129     4.3622379012     3.6642352940
          12
Energy: -41.81514821851442 Kcal/mole
 H      3.8051605293     2.6575565179     1.6530992218
 F      3.3392405031     3.4233922634     1.4599590132
 H      0.5708563545     1.5677199279     3.1687480199
 F      0.5246469805     1.1583758054     2.3494854960
 H      1.7615217478     0.0443308437     2.1418344942
 F      2.5260585478    -0.4589588449     2.0864091316
 H      3.8405674066     0.5469607690     2.1216644555
 F      4.4695377923     1.2133799434     2.1558805026
 H      1.4195739094     3.1224300611     4.3511630779
 F      0.9379257283     2.3727794124     4.5677916414
 H      2.7305282321     4.0547183611     2.8754011973
 F      2.3541536695     4.2950923181     3.6763079018
          12
Energy: -41.70556477895059 Kcal/mole
 H      3.8851017317     2.5988434608     1.7042314720
 F      3.4539092801     3.3934770346     1.5508706128
 H      0.6641643892     1.6273116726     3.1177645485
 F      0.5809684834     1.3043496500     2.2635614267
 H      1.6555453570     0.0570482123     1.9301432807
 F      2.3732956753    -0.4956376787     1.7877993781
 H      3.8115341201     0.4221991674     1.9968498421
 F      4.4512951641     1.0742160941     2.0772782813
 H      1.5831993461     3.0380218128     4.3890798831
 F      1.1338677655     2.2654476029     4.5943095616
 H      2.8581257507     4.0867750195     2.9575529836
 F      2.4693136675     4.3162914051     3.7556985798
          12
Energy: -41.73848219476514 Kcal/mole
 H      4.0238874859     2.6309220962     1.7855352320
 F      3.6650925768     3.4696303893     1.6921349518
 H      0.4674537973     1.7880446099     2.9978678003
 F      0.4284528296     1.3923720357     2.1715439300
 H      1.5326604128     0.1543438046     1.9468335110
 F      2.2510932664    -0.4102838569     1.8697696489
 H      3.6782082770     0.4887211191     2.0003702063
 F      4.3937557998     1.0453213557     2.1384894270
 H      1.5266509488     3.1690822122     4.3221379903
 F      0.8677640998     2.5450962607     4.4540419417
 H      3.0959528098     4.0493164275     3.1252898746
 F      2.7399094034     4.2323082674     3.9502965893
          12
Energy: -41.742088494266284 Kcal/mole
 H      3.7667367468     2.5818451854     1.6755396352
 F      3.3345982577     3.3713606318     1.5000099050
 H      0.3870034518     1.8013185771     3.0283794319
 F      0.3109551318     1.4813214746     2.1723960749
 H      1.4547096257     0.2598462092     1.8461516457
 F      2.1835820238    -0.2861202160     1.7386589024
 H      3.6231872739     0.5281673880     1.9817188059
 F      4.3286967080     1.1013040235     2.1027966135
 H      1.3306804017     3.1395034053     4.3680122901
 F      0.7573288234     2.4378739332     4.5089841008
 H      2.8201630839     3.9792091111     2.9768564186
 F      2.5267898676     4.1813240835     3.8218242842
          12
Energy: -41.67330507317499 Kcal/mole
 H      3.7830384495     2.6063353133     1.5448804373
 F      3.3095907793     3.3903868713     1.5001651365
 H      0.2724374533     1.7167882614     3.0096915442
 F      0.2096619034     1.2660896231     2.2135640621
 H      1.4681529495     0.2065502166     1.9666221387
 F      2.2228374609    -0.3084241429     1.8882531575
 H      3.6951666424     0.5342909586     1.7930940386
 F      4.4143297678     1.1025025019     1.7643009640
 H      1.3144281985     3.1760396712     4.2505912623
 F      0.7174747462     2.4998958519     4.4160152974
 H      2.8237726823     3.9968533962     2.9383139784
 F      2.4386963823     4.2875459814     3.7181236117
          12
Energy: -41.72030686339593 Kcal/mole
 H      3.5576746823     2.5379279546     1.7646129169
 F      3.0980143956     3.3061606299     1.5660682685
 H      0.2409185118     1.5554934838     3.1111637868
 F      0.1860191088     1.1208786112     2.3055677540
 H      1.4453522096     0.0467083732     2.1542715523
 F      2.2207247599    -0.4423912961     2.1326400527
 H      3.5915358705     0.4742069764     2.1577189411
 F      4.2515925743     1.1100919328     2.1871208122
 H      1.1723320047     3.0989543199     4.3638907130
 F      0.5567436550     2.4317339940     4.4933396236
 H      2.6150064261     4.0088700728     3.0345808218
 F      2.3059840686     4.1885496871     3.8790388840
          12
Energy: -41.81007273219552 Kcal/mole
 H      3.5742225089     2.5519093979     1.7913186405
 F      3.1319296877     3.3241855982     1.5702857678
 H      0.0802548292     1.5954863695     3.1758444510
 F      0.0914565449     1.0988655590     2.4050453254
 H      1.3591711264     0.0231616748     2.2596692896
 F      2.1293576808    -0.4701432406     2.1937001151
 H      3.5220253163     0.4550388519     2.2639325486
 F      4.1698868348     1.0997646262     2.3380481936
 H      0.9495506863     3.2224544448     4.2876765278
 F      0.3269149785     2.5764591063     4.4771595035
 H      2.5165477588     4.0122886121     2.9554816932
 F      2.1421573194     4.2621118881     3.7544242003
          12
Energy: -41.78103110540502 Kcal/mole
 H      3.6243183545     2.5101898345     1.8458311237
 F      3.1537921128     3.2473984211     1.5701183097
 H      0.1681963843     1.5578979446     3.0762440633
 F      0.1666466704     1.0378346051     2.3209820417
 H      1.4504484620    -0.0099211589     2.1520349860
 F      2.2375829461    -0.4802980681     2.1446955571
 H      3.5709327935     0.4872991085     2.3284749125
 F      4.2228878722     1.1167825454     2.4684541179
 H      0.9793668278     3.2418571019     4.1891349127
 F      0.4293798967     2.5365169631     4.3913690940
 H      2.4746759024     4.0508688840     2.8816787920
 F      2.0190583818     4.3731468938     3.6093040798
          12
Energy: -41.736240406949435 Kcal/mole
 H      3.5971338833     2.5803113849     1.8745441616
 F      3.1315954640     3.3264054767     1.6147238653
 H      0.0877235101     1.5681374410     2.8506849265
 F      0.1760773979     1.0379071238     2.1077593574
 H      1.5025544875     0.0204803860     2.2440449498
 F      2.2820726423    -0.4400470296     2.3894923488
 H      3.6263721473     0.5216202135     2.4007055915
 F      4.2666910645     1.1777181796     2.4211051753
 H      0.7845185401     3.2554304493     4.0794493509
 F      0.1744507843     2.5791138168     4.1857609021
 H      2.4554402964     4.1294249717     2.9077380772
 F      2.0190745704     4.3703018952     3.6774472826
          12
Energy: -41.741810842316994 Kcal/mole
 H      3.5733563292     2.5528136585     1.9170840254
 F      3.1297986209     3.3116918852     1.6558381710
 H      0.1558484146     1.6106690728     2.7320404721
 F      0.2969286818     1.1510577005     1.9511802127
 H      1.5178287332     0.0041407785     2.0372336648
 F      2.2719602731    -0.5120050415     2.1131817596
 H      3.6059586488     0.4932750863     2.3868202959
 F      4.2204816883     1.1586369257     2.5301522764
 H      0.7324205556     3.2235114159     4.0577191317
 F      0.1379775846     2.5297601677     4.1366859598
 H      2.3856798661     4.0802347360     2.9427918200
 F      1.9099046136     4.3908028550     3.6625656404
          12
Energy: -41.759110058683405 Kcal/mole
 H      3.6709512315     2.6120478903     1.9234403419
 F      3.2418951551     3.3652077496     1.6241910985
 H      0.2203820110     1.5294522457     2.6950760510
 F      0.2836913830     1.0671948084     1.9056465196
 H      1.4758076355    -0.0518438301     2.0115200169
 F      2.2343242951    -0.5343797125     2.1923530875
 H      3.5348150329     0.5127602278     2.4077681207
 F      4.1678884579     1.1647558598     2.5302782605
 H      0.8222125338     3.1561775448     3.9771922268
 F      0.3160814268     2.4014825000     4.1003006826
 H      2.3998935782     4.0874545493     2.8459693703
 F      1.9032566012     4.3624116815     3.5661355237
          12
Energy: -41.79875633617584 Kcal/mole
 H      3.5654305453     2.5799500217     1.9806183156
 F      3.1264279793     3.3357602324     1.7032797634
 H      0.0870817666     1.5198001761     2.6557856955
 F      0.2665929728     1.1140855745     1.8532519648
 H      1.4946974489    -0.0520044889     1.8834297580
 F      2.2514350289    -0.5564603935     2.0007390731
 H      3.5124281994     0.4810891910     2.3712296321
 F      4.0938428785     1.1481660921     2.6117590043
 H      0.6073689900     3.1161090509     3.9690637861
 F      0.0656788163     2.3829383860     4.0686706722
 H      2.2521711992     4.0724032974     2.9187578458
 F      1.7105616997     4.3159806164     3.6174840009
          12
Energy: -41.77892245334078 Kcal/mole
 H      3.5696367727     2.5416330448     1.8769663938
 F      3.1528500326     3.3023079271     1.5793902913
 H      0.0449892318     1.4908744244     2.5634750671
 F      0.1760466861     1.1231808239     1.7337074130
 H      1.4100862073     0.0142219514     1.8618497571
 F      2.1660802084    -0.4876255576     1.9941794510
 H      3.4740372436     0.4905850851     2.3853744764
 F      4.0919014221     1.1439961464     2.5647813938
 H      0.6429082142     2.9328470870     3.9202206852
 F      0.1531825448     2.1698107601     4.0574552748
 H      2.2046963823     3.9796505677     2.8103638409
 F      1.6379423271     4.2122613048     3.4926915378
          12
Energy: -41.781644011382895 Kcal/mole
 H      3.6284385261     2.4887385534     2.1577943060
 F      3.2455498421     3.2424576845     1.8025581492
 H     -0.0762319660     1.4179179536     2.6001239255
 F      0.0098349513     0.9803950868     1.7988404384
 H      1.3249700296    -0.0464629263     1.9457266055
 F      2.0981641310    -0.5204932835     2.0812076081
 H      3.4390886023     0.3804518202     2.5593330560
 F      4.0543299218     1.0184768933     2.7944737055
 H      0.5461327933     3.0131557506     3.8916919186
 F      0.0403714531     2.2601966041     4.0264026851
 H      2.2271895371     3.9618060843     2.9144807666
 F      1.6128229687     4.2192140137     3.5447060260
          12
Energy: -41.82439735546416 Kcal/mole
 H      3.5146245181     2.4934032745     2.1391051869
 F      3.1070818471     3.2397854436     1.7960139032
 H     -0.1035191435     1.5336075824     2.5283520652
 F      0.1389059059     1.1009728757     1.7570244396
 H      1.3406162954    -0.0108129120     2.0254508860
 F      2.0850926646    -0.5072474595     2.2259419721
 H      3.3698393565     0.4589392728     2.6022599910
 F      4.0151695097     1.0728956703     2.8201946954
 H      0.3346186241     3.1429077974     3.8344758946
 F     -0.2416951082     2.4346385404     3.9187738282
 H      2.1464532085     3.9901947537     2.9400095980
 F      1.5446269740     4.2591293895     3.5774798679
          12
Energy: -41.79617814147744 Kcal/mole
 H      3.6228345958     2.5029986933     2.0584583190
 F      3.1864800691     3.2547135518     1.7662109950
 H     -0.0571079229     1.4002999838     2.5228957970
 F      0.1428220071     0.9887196403     1.7282143238
 H      1.4299980336    -0.0614428385     1.9864620424
 F      2.1770883656    -0.5316558307     2.2347457062
 H      3.5234808932     0.4096579896     2.5042232725
 F      4.1740113692     1.0419250129     2.6381542663
 H      0.5087394849     2.9205518133     3.9214538210
 F     -0.0645620887     2.2073868540     3.9815374825
 H      2.2302325586     3.8838138979     2.9718731594
 F      1.6290831108     4.1073792643     3.6272561530
          12
Energy: -41.79938003487953 Kcal/mole
 H      3.5520293739     2.4825873185     2.0244099162
 F      3.0866503147     3.2415620353     1.8047085042
 H      0.0252627885     1.3875774387     2.5746177909
 F      0.2339467915     1.0327119277     1.7552213935
 H      1.4447993238    -0.0592392148     1.9203661008
 F      2.1855044209    -0.5698036436     2.0980425571
 H      3.5088641653     0.3816459590     2.3888088572
 F      4.1209481285     1.0381005494     2.5767173263
 H      0.4848968889     2.8166270882     4.0229104015
 F     -0.0810482245     2.0957223134     4.0527672982
 H      2.1737855611     3.8333546763     3.0829604707
 F      1.6087199134     4.0317044842     3.7774006535
          12
Energy: -41.83824212716294 Kcal/mole
 H      3.5005422339     2.5215925140     2.1030918672
 F      3.0265556656     3.2673344528     1.8579496762
 H     -0.0358381852     1.4267031032     2.5058208640
 F      0.1684586714     0.9501697974     1.7494692243
 H      1.4123975716    -0.1298544824     2.0332113168
 F      2.1677465415    -0.5973229761     2.2608297278
 H      3.4818523054     0.4123864109     2.4758901619
 F      4.1115577676     1.0643612510     2.6147744255
 H      0.3676259825     3.0470544832     3.8789993785
 F     -0.1832301205     2.3145465732     3.9086425139
 H      2.0737296237     3.9721557656     3.0326184889
 F      1.4878682085     4.2435081280     3.6837892019
          12
Energy: -41.781055526276845 Kcal/mole
 H      3.5449973424     2.5131763740     2.0877049489
 F      3.0831305859     3.2756606887     1.8727962029
 H     -0.0076123263     1.4212988230     2.4982383427
 F      0.1911012517     0.9762158574     1.7215124788
 H      1.3999758358    -0.1104210944     1.9948332222
 F      2.1418561093    -0.5941107885     2.2326292265
 H      3.4629372888     0.4061818857     2.4452818362
 F      4.1140997789     1.0341270054     2.5954861571
 H      0.4253237049     2.9316395057     3.9871445395
 F     -0.1620025228     2.2284615599     3.9487039509
 H      2.1936431529     3.8925579037     3.1798580099
 F      1.6678387791     4.0639343792     3.9113283539
          12
Energy: -41.82106030173111 Kcal/mole
 H      3.3911170935     2.4710307097     2.2366164272
 F      2.9784218984     3.2238209720     1.9143145551
 H     -0.0621085641     1.4246884055     2.4665432612
 F      0.1860038989     1.0484464658     1.6679374708
 H      1.3985776837    -0.0634255124     1.8748407462
 F      2.1393963061    -0.5747167893     2.0499350032
 H      3.3640660353     0.3993708704     2.6213096471
 F      3.9211701779     1.0656302772     2.9156264445
 H      0.3280441269     2.9328822688     3.9492867183
 F     -0.2191135129     2.1970234541     3.9448910309
 H      2.0113184474     3.8952435844     3.0951334239
 F      1.4688588204     4.1272362868     3.7971348051
          12
Energy: -41.80098193287475 Kcal/mole
 H      3.4318578708     2.5409573755     2.0918201414
 F      2.9667438744     3.2982585199     1.8658711493
 H     -0.1172345981     1.3804688604     2.4840603318
 F      0.1175598091     0.9749929929     1.6958028185
 H      1.4013099994    -0.0667733125     1.7822620898
 F      2.1809990432    -0.5365898371     1.8929256710
 H      3.4427492666     0.4295886994     2.3128434379
 F      4.0498675284     1.0744851031     2.5503409005
 H      0.3157784051     2.9032577558     3.9538333527
 F     -0.3146968924     2.2405859099     3.8885959108
 H      2.0772485277     3.8667931328     3.1643467176
 F      1.5444600250     4.0443376408     3.8892628224
          12
Energy: -41.83663535897617 Kcal/mole
 H      3.4493053759     2.5487076296     2.1074805141
 F      2.9718783800     3.2744399509     1.8137713699
 H     -0.0883131997     1.3558473839     2.5471866714
 F      0.0887784850     0.8989098016     1.7721153320
 H      1.4083238159    -0.1036645347     1.9144334797
 F      2.2074868543    -0.5396362941     2.0246880172
 H      3.4325541618     0.4665383543     2.4892196512
 F      4.0331759193     1.1219147079     2.7142181837
 H      0.3604336408     2.9252010915     3.9629987915
 F     -0.1920660628     2.1934137842     3.9739721461
 H      2.0521478290     3.8917739040     3.0553278404
 F      1.5121094016     4.1167162200     3.7614782857
          12
Energy: -41.831759427664025 Kcal/mole
 H      3.4381900953     2.6320636462     2.1567603381
 F      3.0181367127     3.3746018554     1.8204849099
 H     -0.0375010074     1.3759868168     2.5465198472
 F      0.1330781875     1.0125573872     1.7220741012
 H      1.4385900633    -0.0263567795     1.7525449027
 F      2.2324706937    -0.4760121066     1.8444830958
 H      3.4060359098     0.5229756938     2.4413016318
 F      3.9414792857     1.1838862298     2.7839189906
 H      0.4693294559     2.8585590445     3.9874745264
 F     -0.0201753909     2.0854023153     4.0466579451
 H      2.0590426275     3.9933881168     3.0331950620
 F      1.4828760996     4.1819603698     3.7212078798
          12
Energy: -41.825782599538 Kcal/mole
 H      3.4222684845     2.6164558421     2.1717823005
 F      3.0029380109     3.3558894768     1.8278508337
 H     -0.0117877393     1.3950255485     2.5470699453
 F      0.1846321776     1.0335723368     1.7275214159
 H      1.4923457327    -0.0148457603     1.7731675639
 F      2.2652812080    -0.5015035328     1.8545552995
 H      3.4087036979     0.5060755325     2.4795575591
 F      3.9247629563     1.1811607942     2.8242773456
 H      0.4335572976     2.9508601310     3.9381530514
 F     -0.0272931414     2.1630856413     4.0271318483
 H      2.0124033058     4.0073062892     2.9874525653
 F      1.4381685461     4.2288665701     3.6671984609
          12
Energy: -41.78008059373951 Kcal/mole
 H      3.4486439818     2.5793712205     2.1795569866
 F      2.9702183628     3.2966050197     1.8671892475
 H     -0.0437985499     1.2900237925     2.5521754313
 F      0.1597364134     0.8740697956     1.7606927775
 H      1.5346743225    -0.0884438986     1.7767205166
 F      2.3470283771    -0.4922527202     1.9105425090
 H      3.5110234330     0.5099479269     2.5495044186
 F      4.0249422184     1.1969605213     2.8732175282
 H      0.3049042186     2.8785840455     3.9418073338
 F     -0.1935281090     2.1101988272     3.9869556578
 H      1.9267130536     3.9448845705     2.9845507969
 F      1.3265544221     4.1747142135     3.6386738375
          12
Energy: -41.838192002068325 Kcal/mole
 H      3.4098391720     2.6155954508     2.2076253541
 F      2.9593181279     3.3275056373     1.8455429391
 H     -0.0509471980     1.3323751130     2.5755422072
 F      0.1218821112     0.8590705866     1.8093817442
 H      1.4711606536    -0.0906496658     1.9625011813
 F      2.2804693974    -0.5050272074     2.0816632984
 H      3.4233450456     0.5387578167     2.6392867512
 F      3.9718986273     1.2211278227     2.9119571440
 H      0.3338842926     2.9956824084     3.9090044864
 F     -0.1670603233     2.2291784405     3.9581487546
 H      1.9651814094     4.0508767253     2.9695066044
 F      1.3781727956     4.2721477949     3.6383481411
          12
Energy: -41.82748340088341 Kcal/mole
 H      3.3802328205     2.5687194928     2.2310852716
 F      2.9443678299     3.2736431456     1.8386654024
 H     -0.1097960029     1.3394313714     2.5767674333
 F      0.1147453456     0.8653516233     1.8246247771
 H      1.4539502240    -0.1165224241     2.0859469589
 F      2.2412100553    -0.5500268732     2.2681140542
 H      3.4123339196     0.5211456667     2.7743504976
 F      3.9512464940     1.2242251614     3.0112923919
 H      0.3425295655     3.0073644405     3.9021753730
 F     -0.1834121625     2.2585848307     3.9622036551
 H      1.9456896789     4.0091563250     2.9379157117
 F      1.3742610775     4.2682560011     3.6066650754
          12
Energy: -41.82538798117611 Kcal/mole
 H      3.3412180730     2.5319906634     2.2328312940
 F      2.8788630592     3.1991259699     1.8061612528
 H     -0.1321942216     1.2679165520     2.5853775462
 F      0.0617537079     0.7484041909     1.8550487797
 H      1.4374609621    -0.1806081936     2.0490402512
 F      2.2414697741    -0.5769825971     2.2422918035
 H      3.3893888300     0.5141304999     2.7786947364
 F      3.9206981191     1.2143168486     3.0401111025
 H      0.2684384682     3.0102885952     3.8128904918
 F     -0.2597767997     2.2662106190     3.9035855632
 H      1.8822689960     4.0014995309     2.8522183822
 F      1.2818738430     4.2872173374     3.4837086792
          12
Energy: -41.837108371632326 Kcal/mole
 H      3.3395671911     2.5637592499     2.2926978645
 F      2.9398291418     3.2577742501     1.8461089357