          12
Energy: -41.90538251272869 Kcal/mole
 H      3.1629475890     2.6718798978     2.3595802598
 F      2.7662496885     3.3560341900     1.8954114540
 H     -0.2320120918     1.1698778292     2.5980127224
 F     -0.0127058623     0.6892083066     1.8485124970
 H      1.3757557708    -0.2023530147     2.0880446197
 F      2.1922278258    -0.5688944790     2.2878188383
 H      3.1885156433     0.6046648182     2.9122136716
 F      3.6314664739     1.3422074654     3.2295690014
 H     -0.0015229835     2.9425816663     3.7812369723
 F     -0.3770967849     2.1228474569     3.9481775177
 H      1.5486666607     4.0566841008     2.7946439208
 F      0.8431518823     4.3000028822     3.3274983738
          12
Energy: -41.90545210347477 Kcal/mole
 H      3.1637684370     2.6710076837     2.3575870087
 F      2.7662061444     3.3560804589     1.8955171914
 H     -0.2316160005     1.1692600868     2.5985242284
 F     -0.0127268740     0.6892410764     1.8484853628
 H      1.3758673872    -0.2039058685     2.0847738863
 F      2.1922219048    -0.5688121037     2.2879923431
 H      3.1868481851     0.6045185447     2.9148975810
 F      3.6315549288     1.3422152248     3.2294266262
 H     -0.0019237456     2.9432629691     3.7837019193
 F     -0.3770755254     2.1228113154     3.9480467580
 H      1.5485246307     4.0540296546     2.7956760109
 F      0.8431594166     4.3001436944     3.3274436238
          12
Energy: -41.90533301767826 Kcal/mole
 H      3.1640482728     2.6685621518     2.3536962981
 F      2.7661912997     3.3562101888     1.8957235846
 H     -0.2333970674     1.1706125496     2.5971340139
 F     -0.0126323925     0.6891693314     1.8485591105
 H      1.3760412718    -0.2016104685     2.0882419631
 F      2.1922126806    -0.5689338694     2.2878083696
 H      3.1874821737     0.6035846827     2.9161964338
 F      3.6315212971     1.3422647641     3.2293577251
 H     -0.0020475397     2.9432988939     3.7835987665
 F     -0.3770689584     2.1228094096     3.9480522300
 H      1.5466316770     4.0574146379     2.7916295539
 F      0.8432598335     4.2999641289     3.3276582790
          12
Energy: -41.90470293650256 Kcal/mole
 H      3.1632086656     2.6686325699     2.3545298125
 F      2.7662358390     3.3562064532     1.8956793686
 H     -0.2304665602     1.1721697304     2.5969890034
 F     -0.0127878492     0.6890867266     1.8485668030
 H      1.3765783614    -0.2004695188     2.0881496736
 F      2.1921841892    -0.5689943941     2.2878132654
 H      3.1886354341     0.6042577391     2.9129938448
 F      3.6314601193     1.3422290600     3.2295276150
 H     -0.0033212053     2.9444801914     3.7866270249
 F     -0.3770013933     2.1227467445     3.9478915879
 H      1.5495070620     4.0518312343     2.7980077636
 F      0.8431073009     4.3002603155     3.3273199297
          12
Energy: -41.905554290493626 Kcal/mole
 H      3.1627793005     2.6702064689     2.3572481841
 F      2.7662586158     3.3561229615     1.8955351653
 H     -0.2346119155     1.1682934295     2.5982615575
 F     -0.0125679476     0.6892923554     1.8484992969
 H      1.3774421395    -0.1994174571     2.0865744767
 F      2.1921383678    -0.5690502036     2.2878968259
 H      3.1912862280     0.6019974680     2.9145794313
 F      3.6313195008     1.3423489621     3.2294435033
 H      3.105891E-40     2.9421903958     3.7834675543
 F     -0.3771940517     2.1228682129     3.9480591905
 H      1.5477970322     4.0549750831     2.7942766674
 F      0.8431980141     4.3000935416     3.3275178557
          12
Energy: -41.90520876487983 Kcal/mole
 H      3.1658090398     2.6725953263     2.3581771382
 F      2.7660978951     3.3559962382     1.8954858864
 H     -0.2308815830     1.1703246852     2.5980558958
 F     -0.0127658332     0.6891846020     1.8485102068
 H      1.3754550776    -0.2039777304     2.0863076984
 F      2.1922437769    -0.5688082916     2.2879109779
 H      3.1891404455     0.6038438835     2.9132530331
 F      3.6314333296     1.3422510141     3.2295138657
 H     -0.0016794318     2.9429110600     3.7825079514
 F     -0.3770884856     2.1228299833     3.9481100952
 H      1.5470608596     4.0537986693     2.7938467785
 F      0.8432370663     4.3001559477     3.3275406603
          12
Energy: -41.90533039487909 Kcal/mole
 H      3.1646171963     2.6715199708     2.3576151460
 F      2.7661611197     3.3560532833     1.8955156988
 H     -0.2323990937     1.1698424187     2.5979220819
 F     -0.0126853327     0.6892101851     1.8485173053
 H      1.3779458668    -0.1982450389     2.0866929143
 F      2.1921116462    -0.5691123976     2.2878905431
 H      3.1886290367     0.6043098438     2.9128813424
 F      3.6314604587     1.3422262959     3.2295335830
 H     -0.0011762294     2.9427347936     3.7827769200
 F     -0.3771151794     2.1228393338     3.9480958271
 H      1.5506147872     4.0555409031     2.7977599542
 F      0.8430485387     4.3000635262     3.3273330754
          12
Energy: -41.90536950694565 Kcal/mole
 H      3.1653362794     2.6705014082     2.3554792777
 F      2.7661229740     3.3561073157     1.8956290017
 H     -0.2340538525     1.1681646955     2.5985088003
 F     -0.0125975516     0.6892991844     1.8484861812
 H      1.3762064759    -0.2025634734     2.0858300327
 F      2.1922039169    -0.5688833147     2.2879363170
 H      3.1880926701     0.6049353880     2.9121756485
 F      3.6314889117     1.3421931123     3.2295710184
 H     -0.0021815890     2.9432824785     3.7832117174
 F     -0.3770618474     2.1228102804     3.9480727621
 H      1.5470980445     4.0573415607     2.7922752122
 F      0.8432350937     4.2999680055     3.3276240283
          12
Energy: -41.90518817936143 Kcal/mole
 H      3.1652216167     2.6714753836     2.3570271083
 F      2.7661290566     3.3560556485     1.8955468928
 H     -0.2303563625     1.1717977029     2.5972610285
 F     -0.0127936949     0.6891064618     1.8485523726
 H      1.3764169619    -0.2019894262     2.0860217387
 F      2.1921927511    -0.5689137666     2.2879261474
 H      3.1889303515     0.6030818899     2.9153342079
 F      3.6314444746     1.3422914361     3.2294034642
 H     -0.0022036357     2.9428731267     3.7811386064
 F     -0.3770606778     2.1228319956     3.9481827358
 H      1.5499482901     4.0542731526     2.7974569389
 F      0.8430838948     4.3001307774     3.3273491497
          12
Energy: -41.90551166614517 Kcal/mole
 H      3.1656235448     2.6713599927     2.3565078339
 F      2.7661077352     3.3560617698     1.8955744391
 H     -0.2321759212     1.1703389109     2.5976688331
 F     -0.0126971715     0.6891838473     1.8485307396
 H      1.3768635121    -0.1991153527     2.0894941018
 F      2.1921690627    -0.5690662295     2.2877419466
 H      3.1886690324     0.6034932553     2.9147351876
 F      3.6314583370     1.3422696141     3.2294352408
 H     -7.981163E-40     2.9424285441     3.7821200487
 F     -0.3771352374     2.1228555797     3.9481306726
 H      1.5472207848     4.0555938759     2.7932325799
 F      0.8432285827     4.3000607161     3.3275732422
          12
Energy: -41.90520877534021 Kcal/mole
 H      3.1645914582     2.6713377029     2.3573672272
 F      2.7661624850     3.3560629522     1.8955288503
 H     -0.2352148115     1.1700194183     2.5969768184
 F     -0.0125359654     0.6892007957     1.8485674493
 H      1.3765345907    -0.2006636692     2.0879703130
 F      2.1921865112    -0.5689840949     2.2878227801
 H      3.1907201462     0.6031476551     2.9126748862
 F      3.6313495302     1.3422879474     3.2295445350
 H     -0.0035151070     2.9434546694     3.7810569623
 F     -0.3769911073     2.1228011461     3.9481870668
 H      1.5480851868     4.0584536645     2.7930718620
 F      0.8431827281     4.2999090109     3.3275817679
          12
Energy: -41.905651878885095 Kcal/mole
 H      3.1655340838     2.6699405960     2.3544698514
 F      2.7661124809     3.3561370655     1.8956825494
 H     -0.2345981821     1.1703421006     2.5969526382
 F     -0.0125686762     0.6891836781     1.8485687320
 H      1.3775861975    -0.1998577855     2.0851886439
 F      2.1921307259    -0.5690268452     2.2879703412
 H      3.1900440260     0.6030146760     2.9139286709
 F      3.6313853968     1.3422950016     3.2294780247
 H     -0.0013911261     2.9431783672     3.7844983454
 F     -0.3771037796     2.1228158033     3.9480045094
 H      1.5479655111     4.0548739854     2.7945458692
 F      0.8431890766     4.3000989046     3.3275035752
          12
Energy: -41.90531472868122 Kcal/mole
 H      3.1654151660     2.6706401241     2.3556175584
 F      2.7661187892     3.3560999571     1.8956216662
 H     -0.2326899266     1.1693567407     2.5981480438
 F     -0.0126699047     0.6892359492     1.8485053185
 H      1.3763065782    -0.2024518316     2.0856283892
 F      2.1921986067    -0.5688892370     2.2879470137
 H      3.1873788943     0.6044950804     2.9142035332
 F      3.6315267759     1.3422164696     3.2294634438
 H      0.0024826247     2.9409544754     3.7823211818
 F     -0.3773092731     2.1229337756     3.9481200029
 H      1.5479138000     4.0591488184     2.7925326080
 F      0.8431918198     4.2998721346     3.3276103740
          12
Energy: -41.90554419688908 Kcal/mole
 H      3.1637756407     2.6702406685     2.3564414548
 F      2.7662057623     3.3561211473     1.8955779604
 H     -0.2313992053     1.1698677328     2.5981982419
 F     -0.0127383745     0.6892088422     1.8485026556
 H      1.3762173339    -0.2019982798     2.0868139683
 F      2.1922033409    -0.5689132969     2.2878841215
 H      3.1900695818     0.6034682198     2.9128326974
 F      3.6313840411     1.3422709421     3.2295361635
 H     -9.463467E-40     2.9426253079     3.7827568946
 F     -0.3771273741     2.1228451418     3.9480968894
 H      1.5480065582     4.0530730936     2.7954327599
 F      0.8431868992     4.3001944378     3.3274565277
          12
Energy: -41.905773327859606 Kcal/mole
 H      3.1630471223     2.6698183704     2.3564406250
 F      2.7662444085     3.3561435493     1.8955780044
 H     -0.2329104392     1.1697885795     2.5978064982
 F     -0.0126582070     0.6892130411     1.8485234367
 H      1.3766481220    -0.2008423222     2.0871794759
 F      2.1921804886    -0.5689746178     2.2878647321
 H      3.1912645010     0.6021100777     2.9143451260
 F      3.6313206534     1.3423429884     3.2294559327
 H     -0.0010387021     2.9427254488     3.7830436018
 F     -0.3771224749     2.1228398296     3.9480816802
 H      1.5477891975     4.0550003525     2.7942547004
 F      0.8431984297     4.3000922011     3.3275190210
          12
Energy: -41.905381675081486 Kcal/mole
 H      3.1635948685     2.6715086022     2.3584777922
 F      2.7662153518     3.3560538864     1.8954699374
 H     -0.2300219372     1.1709405622     2.5979099129
 F     -0.0128114354     0.6891519311     1.8485179508
 H      1.3773196782    -0.1994085791     2.0870870709
 F      2.1921448641    -0.5690506745     2.2878696340
 H      3.1887974786     0.6038932026     2.9136179458
 F      3.6314515232     1.3422483978     3.2294945079
 H     -0.0031914572     2.9434882422     3.7819478892
 F     -0.3770082762     2.1227993651     3.9481398052
 H      1.5486963266     4.0573351854     2.7943863781
 F      0.8431503086     4.2999683437     3.3275120358
          12
Energy: -41.90581912439035 Kcal/mole
 H      3.1635949747     2.6717430761     2.3588241658
 F      2.7662153462     3.3560414481     1.8954515631
 H     -0.2327144244     1.1687948409     2.5985004221
 F     -0.0126686052     0.6892657567     1.8484866257
 H      1.3763166839    -0.2021071560     2.0862131082
 F      2.1921980706    -0.5689075213     2.2879159957
 H      3.1875803960     0.6050397005     2.9126498125
 F      3.6315160867     1.3421875787     3.2295458651
 H     -0.0045166297     2.9434378862     3.7787563428
 F     -0.3769379788     2.1228020364     3.9483091094
 H      1.5436680438     4.0541912172     2.7871414871
 F      0.8351632595     4.2979410887     3.3158152719
          12
Energy: -41.9050199089736 Kcal/mole
 H      3.1621970234     2.6679852356     2.3544333539
 F      2.7662895043     3.3562407928     1.8956844855
 H     -0.2349524139     1.1671843329     2.5988680836
 F     -0.0125498850     0.6893511904     1.8484671221
 H      1.3767697048    -0.1998765418     2.0884638139
 F      2.1921740389    -0.5690258502     2.2877966010
 H      3.1896289215     0.6029129013     2.9147491239
 F      3.6314074171     1.3423004005     3.2294345015
 H      2.248802E-40     2.9416729061     3.7807199866
 F     -0.3771895050     2.1228956645     3.9482049426
 H      1.5420726083     4.0560189885     2.7841752706
 F      0.8352478937     4.2978441297     3.3159726228
          12
Energy: -41.90509844074552 Kcal/mole
 H      3.1600804204     2.6691360481     2.3579655843
 F      2.7664017852     3.3561797449     1.8954971088
 H     -0.2340775123     1.1689163232     2.5980213602
 F     -0.0125962965     0.6892593123     1.8485120388
 H      1.3752921729    -0.2035866094     2.0876808852
 F      2.1922524186    -0.5688290397     2.2878381335
 H      3.1897046095     0.6026506428     2.9152596332
 F      3.6314034020     1.3423143127     3.2294074202
 H     -0.0049366935     2.9433817564     3.7775669582
 F     -0.3769156954     2.1228050140     3.9483722035
 H      1.5411757978     4.0549496212     2.7834719916
 F      0.8352954674     4.2979008572     3.3160099302
          12
Energy: -41.90542820116627 Kcal/mole
 H      3.1647363604     2.6717952696     2.3579200007
 F      2.7661547983     3.3560386793     1.8954995269
 H     -0.2330843884     1.1695949487     2.5978795053
 F     -0.0126489794     0.6892233128     1.8485195639
 H      1.3774036267    -0.2011601387     2.0835623959
 F      2.1921404108    -0.5689577583     2.2880566099
 H      3.1887734982     0.6024873230     2.9169596760
 F      3.6314527953     1.3423229765     3.2293172368
 H     -0.0039563331     2.9436604445     3.7810821390
 F     -0.3769677013     2.1227902302     3.9481857313
 H      1.5434734062     4.0550734094     2.7864751548
 F      0.8351735846     4.2978942905     3.3158506193
          12
Energy: -41.905355899739305 Kcal/mole
 H      3.1650844850     2.6702952767     2.3553904113
 F      2.7661363311     3.3561182505     1.8956337158
 H     -0.2331258381     1.1663537960     2.5999346791
 F     -0.0126467806     0.6893952485     1.8484105417
 H      1.3780476758    -0.2006340695     2.0819510432
 F      2.1921062455    -0.5689856651     2.2881420884
 H      3.1871028942     0.6034658386     2.9170159461
 F      3.6315414170     1.3422710685     3.2293142518
 H     -0.0047008714     2.9409594207     3.7741002135
 F     -0.3782468332     2.1209588408     3.9442515093
 H      1.5445497467     4.0542065338     2.7883181973
 F      0.8351164872     4.2979402762     3.3157528501
          12
Energy: -41.90573371226634 Kcal/mole
 H      3.1618725999     2.6686090685     2.3556470076
 F      2.7663067142     3.3562076999     1.8956201040
 H     -0.2346190078     1.1693825635     2.5975624651
 F     -0.0125675714     0.6892345793     1.8485363821
 H      1.3770958496    -0.1992526942     2.0882863746
 F      2.1921567377    -0.5690589439     2.2878060137
 H      3.1906915275     0.6028599324     2.9133868148
 F      3.6313510483     1.3423032104     3.2295067689
 H     -0.0057348096     2.9415128303     3.7745021024
 F     -0.3781919851     2.1209294837     3.9442301900
 H      1.5453899744     4.0556966960     2.7887628545
 F      0.8350719151     4.2978612266     3.3157292621
          12
Energy: -41.90544968338986 Kcal/mole
 H      3.1640086713     2.6711858105     2.3576443008
 F      2.7661934005     3.3560710097     1.8955141522
 H     -0.2324133087     1.1702604858     2.5976496110
 F     -0.0126845787     0.6891880076     1.8485317592
 H      1.3761881082    -0.2013586476     2.0881052199
 F      2.1922048913    -0.5689472279     2.2878156236
 H      3.1884951080     0.6030699027     2.9159766764
 F      3.6314675633     1.3422920719     3.2293693827
 H     -0.0064361646     2.9416272522     3.7735207738
 F     -0.3781547799     2.1209234139     3.9442822472
 H      1.5407401616     4.0507496817     2.7848300771
 F      0.8353185769     4.2981236542     3.3159378869
          12
Energy: -41.90588018020043 Kcal/mole
 H      3.1619541553     2.6689137314     2.3560319739
 F      2.7663023878     3.3561915383     1.8955996824
 H     -0.2332513382     1.1724402854     2.5959982177
 F     -0.0126401231     0.6890723743     1.8486193618
 H      1.3762162202    -0.2016509155     2.0874537497
 F      2.1922034000    -0.5689317238     2.2878501825
 H      3.1887992611     0.6031658950     2.9153212326
 F      3.6314514287     1.3422869798     3.2294041525
 H     -0.0024003643     2.9403351855     3.7761732289
 F     -0.3783688697     2.1209919551     3.9441415406
 H      1.5432637596     4.0564017939     2.7855879104
 F      0.8351847059     4.2978238228     3.3158976855
          12
Energy: -41.90544583086222 Kcal/mole
 H      3.1649491643     2.6703528087     2.3555935831
 F      2.7661435095     3.3561151986     1.8956229380
 H     -0.2334174712     1.1688953805     2.5982294692
 F     -0.0126313102     0.6892604233     1.8485009991
 H      1.3755985405    -0.2032856586     2.0869813583
 F      2.1922361665    -0.5688450044     2.2878752418
 H      3.1880012707     0.6045929781     2.9131003210
 F      3.6314937602     1.3422112763     3.2295219667
 H      3.528133E-40     2.9396141983     3.7788669356
 F     -0.3785149195     2.1210302018     3.9439986457
 H      1.5429548731     4.0535730961     2.7864720516
 F      0.8352010916     4.2979738786     3.3158507839
          12
Energy: -41.9054414790545 Kcal/mole
 H      3.1631987374     2.6692456143     2.3554556159
 F      2.7662363656     3.3561739327     1.8956302569
 H     -0.2344083728     1.1716203712     2.5961855232
 F     -0.0125787451     0.6891158688     1.8486094257
 H      1.3752053181    -0.2027478738     2.0895772267
 F      2.1922570260    -0.5688735327     2.2877375370
 H      3.1891685049     0.6031283622     2.9148897074
 F      3.6314318411     1.3422889708     3.2294270439
 H      1.14029E-500     2.9399328335     3.7796658809
 F     -0.3784968084     2.1210132989     3.9439562635
 H      1.5431413426     4.0535654431     2.7867249838
 F      0.8351911998     4.2979742846     3.3158373664
          12
Energy: -41.90596898604264 Kcal/mole
 H      3.1646756945     2.6696187082     2.3547346832
 F      2.7661580165     3.3561541409     1.8956685007
 H     -0.2329414814     1.1687031421     2.5984923925
 F     -0.0126565603     0.6892706211     1.8484870516
 H      1.3769119637    -0.2014885449     2.0849363562
 F      2.1921664924    -0.5689403372     2.2879837244
 H      3.1900957270     0.6027143024     2.9145609077
 F      3.6313826542     1.3423109357     3.2294444860
 H     -0.0034145507     2.9404928419     3.7746824562
 F     -0.3783150695     2.1209835918     3.9442206227
 H      1.5434398890     4.0541740005     2.7868438026
 F      0.8351753626     4.2979420020     3.3158310634
          12
Energy: -41.90598306455166 Kcal/mole
 H      3.1644638676     2.6708350995     2.3567313686
 F      2.7661692534     3.3560896141     1.8955625811
 H     -0.2333112113     1.1707005719     2.5971027114
 F     -0.0126369470     0.6891646620     1.8485607710
 H      1.3756350855    -0.2030944764     2.0871808929
 F      2.1922342278    -0.5688551462     2.2878646570
 H      3.1903271724     0.6029755266     2.9136246611
 F      3.6313703765     1.3422970784     3.2294941517
 H     -0.0046104168     2.9410415266     3.7746956267
 F     -0.3782516316     2.1209544853     3.9442199240
 H      1.5431164252     4.0526109267     2.7871336303
 F      0.8351925216     4.2980249195     3.3158156887
          12
Energy: -41.905539216457555 Kcal/mole
 H      3.1645041386     2.6709984398     2.3569392149
 F      2.7661671171     3.3560809493     1.8955515554
 H     -0.2309797401     1.1678354130     2.5996191423
 F     -0.0127606262     0.6893166521     1.8484272802
 H      1.3766278047    -0.2012026581     2.0866022643
 F      2.1921815664    -0.5689555028     2.2878953519
 H      3.1892658682     0.6040606980     2.9125722853
 F      3.6314266762     1.3422395125     3.2295499778
 H     -0.0071066095     2.9426038283     3.7767922185
 F     -0.3781192143     2.1208716088     3.9441087047
 H      1.5439834473     4.0556435329     2.7868968326
 F      0.8351465281     4.2978640468     3.3158282502
          12
Energy: -41.905835059279326 Kcal/mole
 H      3.1599390987     2.6694206458     2.3585082337
 F      2.7664092819     3.3561646476     1.8954683225
 H     -0.2339372105     1.1723357458     2.5958630212
 F     -0.0126037392     0.6890779198     1.8486265337
 H      1.3759642001    -0.2016478284     2.0884885800
 F      2.1922167691    -0.5689318875     2.2877952872
 H      3.1833129068     0.6022045416     2.9195138575
 F      3.6251354772     1.3415278167     3.2342882390
 H     -0.0035793687     2.9411331117     3.7774378492
 F     -0.3783063263     2.1209496269     3.9440744554
 H      1.5442478090     4.0544471689     2.7878012870
 F      0.8351325043     4.2979275111     3.3157802710
          12
Energy: -41.90571193757506 Kcal/mole
 H      3.1605445601     2.6687226922     2.3569547981
 F      2.7663771636     3.3562016725     1.8955507287
 H     -0.2350749303     1.1703472904     2.5968076858
 F     -0.0125433858     0.6891834028     1.8485764214
 H      1.3764959157    -0.2012957976     2.0869668769
 F      2.1921885628    -0.5689505620     2.2878760100
 H      3.1812349645     0.6036017701     2.9191594633
 F      3.6252457073     1.3414536969     3.2343070388
 H     -0.0035291797     2.9407700819     3.7757730656
 F     -0.3783089887     2.1209688848     3.9441627684
 H      1.5420885623     4.0523675471     2.7858729564
 F      0.8352470474     4.2980378302     3.3158825645
          12
Energy: -41.905578230045904 Kcal/mole
 H      3.1603185812     2.6678294670     2.3558145141
 F      2.7663891513     3.3562490560     1.8956112181
 H     -0.2327926575     1.1699206363     2.5977563977
 F     -0.0126644551     0.6892060358     1.8485260945
 H      1.3760269089    -0.2018970615     2.0877739933
 F      2.1922134425    -0.5689186663     2.2878331944
 H      3.1854761496     0.6014257977     2.9183177961
 F      3.6250207222     1.3415691273     3.2343516873
 H     -0.0029581575     2.9406587938     3.7765049015
 F     -0.3783392801     2.1209747884     3.9441239462
 H      1.5460886600     4.0549159568     2.7900662180
 F      0.8350348514     4.2979026430     3.3156601217
          12
Energy: -41.90576518894156 Kcal/mole
 H      3.1623375807     2.6709756970     2.3587667654
 F      2.7662820480     3.3560821558     1.8954546080
 H     -0.2335999427     1.1708804557     2.5969017631
 F     -0.0126216305     0.6891551196     1.8485714309
 H      1.3768877650    -0.2010982854     2.0857418419
 F      2.1921677761    -0.5689610395     2.2879409953
 H      3.1827255971     0.6030498432     2.9183568329
 F      3.6251666327     1.3414829754     3.2343496165
 H     -0.0064353154     2.9419236630     3.7749538172
 F     -0.3781548249     2.1209076900     3.9442062276
 H      1.5431154283     4.0568073038     2.7852055788
 F      0.8351925745     4.2978023114     3.3159179674
          12
Energy: -41.905557680941456 Kcal/mole
 H      3.1608705186     2.6719459512     2.3614439300
 F      2.7663598723     3.3560306860     1.8953125906
 H     -0.2343654549     1.1720235553     2.5959378740
 F     -0.0125810218     0.6890944808     1.8486225629
 H      1.3762828902    -0.2020905588     2.0863800612
 F      2.1921998633    -0.5689084017     2.2879071392
 H      3.1822233239     0.6042353294     2.9162995870
 F      3.6251932771     1.3414200881     3.2344587486
 H     -0.0026944107     2.9405170707     3.7764028256
 F     -0.3783532713     2.1209823065     3.9441293611
 H      1.5421141198     4.0545159027     2.7849167282
 F      0.8352456916     4.2979238649     3.3159332902
          12
Energy: -41.90573406600515 Kcal/mole
 H      3.1620567379     2.6704902350     2.3582883625
 F      2.7662969461     3.3561079084     1.8954799862
 H     -0.2331516260     1.1697998401     2.5977283336
 F     -0.0126454126     0.6892124438     1.8485275832
 H      1.3765128912    -0.2017213814     2.0861215053
 F      2.1921876623    -0.5689279857     2.2879208550
 H      3.1853505871     0.6025256282     2.9159282101
 F      3.6250273830     1.3415107838     3.2344784493
 H     -0.0053891867     2.9424092998     3.7796807638
 F     -0.3782103196     2.1208819281     3.9439554740
 H      1.5434734274     4.0541374526     2.7869055557
 F      0.8351735835     4.2979439408     3.3158277875
          12
Energy: -41.90570493883115 Kcal/mole
 H      3.1596108999     2.6689484304     2.3580862333
 F      2.7664266921     3.3561896976     1.8954907087
 H     -0.2316193350     1.1697082089     2.5982362615
 F     -0.0127266971     0.6892173046     1.8485006388
 H      1.3775045119    -0.1999421007     2.0853633804
 F      2.1921350591    -0.5690223724     2.2879610718
 H      3.1848868397     0.6018340134     2.9181822730
 F      3.6250519837     1.3415474724     3.2343588765
 H     -0.0027992962     2.9402823072     3.7750269758
 F     -0.3783477073     2.1209947602     3.9442023467
 H      1.5416668745     4.0541791406     2.7844762414
 F      0.8352694169     4.2979417294     3.3159566570
          12
Energy: -41.905633152641144 Kcal/mole
 H      3.1617205032     2.6704343091     2.3584928557
 F      2.7663147825     3.3561108751     1.8954691383
 H     -0.2299822672     1.1721293320     2.5971557503
 F     -0.0128135398     0.6890888696     1.8485579574
 H      1.3771016944    -0.2000540047     2.0867849262
 F      2.1921564276    -0.5690164362     2.2878856621
 H      3.1858935561     0.6019834892     2.9134173615
 F      3.6277668922     1.3399121363     3.2313768978
 H     -0.0045045802     2.9414345388     3.7768449869
 F     -0.3782572460     2.1209336369     3.9441059054
 H      1.5435799111     4.0551614450     2.7865773055
 F      0.8351679347     4.2978896204     3.3158452004
          12
Energy: -41.9056901368902 Kcal/mole
 H      3.1603512404     2.6679020696     2.3558951500
 F      2.7663874188     3.3562452046     1.8956069406
 H     -0.2339722381     1.1710751715     2.5966663177
 F     -0.0126018811     0.6891447904     1.8485839207
 H      1.3770926024    -0.1995861193     2.0876828966
 F      2.1921569099    -0.5690412564     2.2878380268
 H      3.1844188705     0.6015234985     2.9165545628
 F      3.6278451209     1.3399365377     3.2312104765
 H     -0.0064088340     2.9420381398     3.7755685039
 F     -0.3781562297     2.1209016173     3.9441736199
 H      1.5435532128     4.0534820123     2.7873151252
 F      0.8351693510     4.2979787104     3.3158060608
          12
Energy: -41.90573766034183 Kcal/mole
 H      3.1619356578     2.6707453120     2.3587694257
 F      2.7663033691     3.3560943772     1.8954544669
 H     -0.2331355496     1.1693950200     2.5979925794
 F     -0.0126462654     0.6892339185     1.8485135656
 H      1.3764897064    -0.2014089903     2.0867850697
 F      2.1921888922    -0.5689445573     2.2878856545
 H      3.1857509767     0.6022058070     2.9130998280
 F      3.6277744557     1.3399003428     3.2313937422
 H     -0.0061632985     2.9421816314     3.7768137949
 F     -0.3781692548     2.1208940054     3.9441075601
 H      1.5418813466     4.0523820603     2.7855900006
 F      0.8352580397     4.2980370603     3.3158975747
          12
Energy: -41.90565487902069 Kcal/mole
 H      3.1625267795     2.6709134371     2.3585128487
 F      2.7662720115     3.3560854585     1.8954680777
 H     -0.2329640272     1.1701727480     2.5975441937
 F     -0.0126553643     0.6891926619     1.8485373514
 H      1.3766835820    -0.2013675318     2.0860758662
 F      2.1921786075    -0.5689467566     2.2879232761
 H      3.1832599462     0.6031891711     2.9142943192
 F      3.6279065991     1.3398481776     3.2313303772
 H     -0.0052028665     2.9421959583     3.7790382899
 F     -0.3782202035     2.1208932454     3.9439895558
 H      1.5427574956     4.0540803118     2.7859745396
 F      0.8352115620     4.2979469720     3.3158771758
          12
Energy: -41.90594366871477 Kcal/mole
 H      3.1629387768     2.6712191395     2.3586123185
 F      2.7662501559     3.3560692417     1.8954628011
 H     -0.2350241590     1.1709420835     2.5964399471
 F     -0.0125460791     0.6891518504     1.8485959291
 H      1.3765611383    -0.2008266740     2.0875620641
 F      2.1921851029    -0.5689754479     2.2878444367
 H      3.1848684606     0.6017148093     2.9154743786
 F      3.6278212711     1.3399263891     3.2312677778
 H     -0.0036849236     2.9408846822     3.7759846168
 F     -0.3783007268     2.1209628056     3.9441515461
 H      1.5432092720     4.0545499158     2.7863622231
 F      0.8351875963     4.2979220606     3.3158566100
          12
Energy: -41.905486338016715 Kcal/mole
 H      3.1636407153     2.6703053048     2.3566539678
 F      2.7662129197     3.3561177185     1.8955666871
 H     -0.2306860233     1.1706219311     2.5979218968
 F     -0.0127762072     0.6891688337     1.8485173151
 H      1.3758634751    -0.2018007379     2.0886194461
 F      2.1922221123    -0.5689237760     2.2877883450
 H      3.1869370458     0.6011865360     2.9138199202
 F      3.6277115375     1.3399544128     3.2313555430
 H     -0.0057293502     2.9419089257     3.7764412345
 F     -0.3781922747     2.1209084718     3.9441273236
 H      1.5454968130     4.0551683919     2.7891500857
 F      0.8350662475     4.2978892519     3.3157087204
          12
Energy: -41.9055826482506 Kcal/mole
 H      3.1629834991     2.6708867524     2.3580820721
 F      2.7662477835     3.3560868741     1.8954909294