          12
Energy: -41.90673486692276 Kcal/mole
 H      3.1595068588     2.6634672807     2.3535076023
 F      2.7601104727     3.3458074734     1.8889826963
 H     -0.2292032403     1.1750645846     2.5967541241
 F     -0.0077440664     0.6993026911     1.8447598056
 H      1.3769401411    -0.1966309735     2.0836898607
 F      2.1905132566    -0.5678987174     2.2865396775
 H      3.1871710419     0.6020374354     2.9155137015
 F      3.6298794587     1.3405263805     3.2310011587
 H     -0.0017463905     2.9402997895     3.7790485506
 F     -0.3734101099     2.1194175539     3.9490704163
 H      1.5406701840     4.0496753656     2.7804242132
 F      0.8342946505     4.2964666535     3.3105342639
