          12
Energy: -40.148495551393864 Kcal/mole
 H      1.5819274988    -2.3239361691     5.0033726643
 F      1.7908346350    -3.2167542016     5.0144527980
 H      0.2028411378    -3.1421717238     1.3992327559
 F      0.0869718663    -2.2625164768     1.1675649800
 H      1.0134640882    -1.0670506202     1.9400663415
 F      1.5258735508    -0.4348743825     2.3627704309
 H      1.1881180892    -0.4999625865     3.9196068642
 F      1.0115186227    -0.6833729081     4.8005508365
 H      0.4371067792    -5.1126269543     2.8706692227
 F      0.2024729968    -4.7631103311     2.0560072570
 H      1.1350981367    -4.8533380799     4.8031346440
 F      0.7300981195    -5.5699532004     4.3989975941
          12
Energy: -40.951099413805395 Kcal/mole
 H      0.4923219737    -1.7831587824     3.6231639377
 F      0.9990744074    -2.4172824658     4.0497528793
 H     -0.3272565969    -4.4910253178     0.0515463207
 F     -0.8842478865    -3.9727253005    -0.4603274874
 H     -0.1848012278    -2.5316126334    -0.1460981891
 F      0.2214835635    -1.7642077317     0.1487091806
 H     -0.1597536092    -0.9301733208     1.6502078277
 F     -0.2412590079    -0.6806765897     2.5288415689
 H      0.6059154464    -5.0405962690     1.8793827609
 F      0.9044365726    -5.1330675965     1.0172788282
 H      0.3195659902    -3.8849803090     3.7010937367
 F     -0.0374667878    -4.6885355157     3.4408714755
          12
Energy: -40.274216408347144 Kcal/mole
 H      1.1194080398    -3.4806852141     2.7957036005
 F      1.6311192606    -4.2266853757     2.9457848632
 H     -0.1934886173    -4.5954546985    -1.6973558918
 F     -0.6569279072    -3.8076649362    -1.7715200010
 H     -0.7000988432    -2.4553646248    -0.6794658731
 F     -0.7084945196    -1.7476516562    -0.0964042410
 H     -0.0773497829    -1.9077100471     1.3969089770
 F      0.1463632978    -2.1352612565     2.2565960739
 H      0.6520823908    -6.0027665993    -0.4442055414
 F      0.7083374291    -5.9004510228    -1.3537416284
 H      0.9976457266    -5.3219673983     1.9075949929
 F      0.4855210275    -5.7355128599     1.2691614068
          12
Energy: -40.863798217742755 Kcal/mole
 H      2.2153493880    -2.7059875941     1.9921580577
 F      2.9668306938    -2.6561022596     1.4690172540
 H      1.5539876858    -3.6173554197    -1.4486200276
 F      0.8532133651    -3.1878642012    -1.0419977892
 H      0.1072359647    -4.1132457777     0.1238473648
 F     -0.1170138130    -4.5621578373     0.8913621855
 H      0.3420041930    -3.5362751131     2.0941959958
 F      0.7484775603    -2.9503064366     2.6706585808
 H      3.4014354056    -4.6885698875    -1.1531789355
 F      2.9422528831    -4.6316234793    -1.9448843843
 H      3.6659525394    -4.0837084308     0.8664164585
 F      3.9995735698    -4.8174427262     0.4291293768
          12
Energy: -40.959890822498124 Kcal/mole
 H      1.4817810947    -3.3508061471     2.7178203254
 F      2.2001338296    -3.8040260774     2.3722048697
 H     -0.4106355680    -3.1095207252    -0.9244733493
 F     -1.0117751415    -2.5715181686    -0.4884991960
 H     -1.5883162663    -3.2581322218     0.9093945584
 F     -1.7758308849    -3.5942283509     1.7417206122
 H     -0.6745851511    -2.9637655959     2.8789175636
 F      0.0823430316    -2.6790333528     3.3112094511
 H      0.9901564362    -4.7586195544    -0.4936416524
 F      0.8363908791    -4.2719303709    -1.2554676116
 H      1.5882221045    -4.9931300469     1.4054230898
 F      1.2565710388    -5.6427411316     0.8496335529
          12
Energy: -40.74568026115031 Kcal/mole
 H      2.1375999418    -3.0995648752     2.7838050262
 F      2.6810778945    -3.6417321063     2.2822320918
 H     -0.7556569584    -4.3043174220     0.2193126509
 F     -1.0477770703    -3.4447599154     0.3486019901
 H     -1.3501313562    -3.5252760916     1.9577468391
 F     -1.4062794801    -3.5362691464     2.8729602246
 H     -0.0538278563    -2.8404825980     3.3683566941
 F      0.7282984554    -2.3881588429     3.5251069833
 H      0.4874646957    -6.0532975989     0.7632073895
 F     -0.2265810390    -5.8772684434     0.2154470175
 H      2.1761727207    -5.2451973444     2.1030385870
 F      1.8611135351    -6.0815575335     1.8977866842
          12
Energy: -41.057112648242395 Kcal/mole
 H      0.1247663705    -4.2332463655     4.1214661472
 F      0.6262933683    -4.9421523966     3.8268275389
 H     -1.0998659606    -3.5420553249     0.5755268720
 F     -1.7287939923    -4.1830993061     0.7610023289
 H     -2.7382685710    -3.8290453660     2.1919561691
 F     -3.0567900900    -3.5558611834     3.0073109656
 H     -1.7161765214    -3.1285596561     3.8786460247
 F     -0.9067071065    -2.9706082678     4.2795196023
 H      1.0058840754    -3.1304087963     0.8682907155
 F      0.3578957212    -2.6774304990     0.4037363538
 H      1.6803313504    -4.3391299728     2.6028057239
 F      2.0968482557    -3.8775009662     1.9287869349
          12
Energy: -41.16974388124035 Kcal/mole
 H     -0.8192961282    -5.1912887348     3.7252811338
 F     -0.2391580663    -4.5117652417     3.9316222383
 H     -1.8576827917    -3.9617580622    -0.2500770749
 F     -2.4183905599    -4.6809246318    -0.3464889198
 H     -3.3732419674    -4.7599107437     1.0440739831
 F     -3.6970507668    -4.8411106634     1.8981485902
 H     -2.6337885723    -5.7955947739     2.6476068578
 F     -1.9288975985    -6.2991098295     2.9484229209
 H     -0.0264639195    -3.0715754737     0.7925895167
 F     -0.7461920976    -2.7734170655     0.3088727470
 H      0.6858830379    -4.0998346133     2.6479722942
 F      1.1409638979    -3.7983244076     1.9111670236
          12
Energy: -40.220675801960425 Kcal/mole
 H     -0.9830799641    -5.3209105902     4.3168458118
 F     -0.2168904305    -4.8197241103     4.2653219234
 H     -2.6254276718    -2.8504288766     0.9356223535
 F     -3.3183572412    -3.3870566303     0.6658664157
 H     -3.9558240486    -3.9336394557     2.0617271576
 F     -4.1716948254    -4.3841770759     2.8306905250
 H     -3.1989031790    -5.4643451322     3.6671979415
 F     -2.6739750677    -5.9708183574     4.2229176102
 H     -0.5819131265    -2.6679947266     1.6500478196
 F     -1.2547455966    -2.0561624887     1.5323754786
 H      0.3468610298    -4.1802459772     2.8074790442
 F      0.3992354106    -3.8448826018     1.9556120765
          12
Energy: -40.90715865462349 Kcal/mole
 H     -0.5356923510    -4.2243611505     3.4058687831
 F      0.0394636352    -3.5124892220     3.4635138094
 H     -2.5538644397    -0.9735646329     2.0526984935
 F     -2.6599159185    -1.5888545574     1.3810881954
 H     -3.2317956466    -2.9868547799     2.0612609947
 F     -3.4940147102    -3.7623909088     2.4743879430
 H     -2.4143166299    -4.9751910247     2.9952874333
 F     -1.6483803427    -5.3620835669     3.3186212621
 H     -1.6433954959    -0.5384204886     3.9354389632
 F     -2.1510532528    -0.0667745014     3.3348370446
 H     -0.3495504957    -2.3106724351     4.5834106244
 F     -0.7767486449    -1.5847079583     4.9458555438
          12
Energy: -40.99246571597553 Kcal/mole
 H     -1.2094050264    -3.9960232137     3.9487491145
 F     -0.6922354923    -3.7011886349     4.6462426586
 H     -0.2236008042    -0.8457122294     2.5315446060
 F      0.3328561096    -1.3769770640     2.0325432247
 H     -0.3670927606    -2.5168285119     1.0353860424
 F     -0.8294758664    -3.2232901243     0.6776111779
 H     -1.8199409994    -3.8051513113     1.8091937352
 F     -2.1786929869    -4.1336854288     2.5865297919
 H     -1.5390700066    -0.6078856473     4.2628049588
 F     -1.1895112831    -0.0566867723     3.6186951086
 H     -1.5211252225    -2.4486545823     5.2095179306
 F     -2.0101416146    -1.6893564293     5.3683205853
          12
Energy: -41.479747817671694 Kcal/mole
 H     -1.8171416859    -4.0872258406     4.3065142023
 F     -1.6509187368    -4.0628608981     5.2079936978
 H      1.0547362659    -1.3043230179     2.6528585615
 F      0.8482894884    -1.3820823001     1.7627899000
 H      0.5299622847    -2.9360449427     1.4999821732
 F      0.3659322384    -3.8365593999     1.4446933300
 H     -1.1370746392    -4.1407844853     2.1413992957
 F     -1.9215132571    -4.1423149919     2.6163126692
 H      0.5863408310    -1.5163386004     4.8753117608
 F      1.3239444433    -1.4441493434     4.3352945182
 H     -1.1441665105    -2.4873568312     5.7217777221
 F     -0.7985825927    -1.6425318886     5.8097070812
          12
Energy: -41.251962766283555 Kcal/mole
 H     -0.8580008655    -3.0191743648     4.9529848043
 F     -0.6842125906    -2.6064514768     5.7532013083
 H     -0.2625526497     0.0719458481     2.4692970840
 F     -0.1212188526    -0.3832475690     1.6858989025
 H      0.7182972258    -1.8216000432     1.9690635810
 F      1.0571060583    -2.6112488593     2.2893014959
 H     -0.3183894964    -3.2819275028     2.9115217374
 F     -1.0700693923    -3.4925062343     3.3926900363
 H     -1.0592165792     0.2829224366     4.5059565844
 F     -0.4307228636     0.6921564996     3.9783088505
 H     -1.7970996475    -1.2807935340     5.6318655646
 F     -2.1901331188    -0.5027037522     5.3472781758
          12
Energy: -41.46711226433706 Kcal/mole
 H      0.5838805179    -3.0319726739     4.9728036689
 F      0.2101446902    -2.5971462831     5.6884408262
 H     -0.4495957381    -0.1076735956     1.6248024543
 F     -0.0457033156    -0.6187807641     0.9794115856
 H      1.3756446846    -1.2885447851     1.5821440503
 F      2.0393377097    -1.6003580829     2.1327555611
 H      1.5449424836    -2.8760648179     2.9898848635
 F      1.2052868670    -3.5427745027     3.5199992458
 H     -1.3489743191     0.1209325872     3.7158181381
 F     -1.0431861968     0.6326023830     3.0189848407
 H     -1.0388139511    -1.5600378951     5.1808100447
 F     -1.7284348701    -1.0446909721     4.8650102075
          12
Energy: -41.516127199780016 Kcal/mole
 H      1.5253596698    -0.1623698264     5.1682659601
 F      1.1092554120     0.5698566130     5.5310202683
 H     -0.5862456702    -0.4503340445     1.7660247689
 F     -0.0856024578    -1.1152241161     1.3811006639
 H      1.4322285502    -0.5510851438     1.6943952279
 F      2.2222848927    -0.2227394989     2.0243787322
 H      2.3964241601    -1.0320893635     3.4961642633
 F      2.2151817150    -1.3951384308     4.3184996881
 H     -1.4659261445     0.7543984161     3.5225409730
 F     -1.3133382516     0.8091675755     2.6199855597
 H     -0.5863957324     0.6380825461     5.3651093619
 F     -1.4757521688     0.5889819762     5.1471110519
          12
Energy: -41.27796200430606 Kcal/mole
 H      1.0919951859     0.8449341148     5.3645516857
 F      0.3487655361     1.3817157672     5.3454690948
 H     -0.4699490691    -2.3307936093     2.9068534358
 F      0.3487152685    -2.7427188476     2.9384018162
 H      1.7995555145    -1.8845334320     2.9418411552
 F      2.5199844116    -1.3174810034     2.9238759802
 H      2.4689951465    -0.6471456771     4.4684667710
 F      2.3380327666    -0.2498900896     5.2845095721
 H     -1.8086782211    -0.9473474078     3.6440037585
 F     -1.7928495588    -1.3925049911     2.8424595118
 H     -0.9704593618     0.3641878303     5.1975952698
 F     -1.6668006290    -0.2182792310     5.0682509153
          12
Energy: -40.876533673565376 Kcal/mole
 H      0.8377297170     0.7975967770     5.3815795246
 F     -0.0124909466     1.1411276778     5.3821655044
 H     -0.1973966151    -1.7792443960     2.0548183081
 F      0.5883165647    -2.2397793633     1.9478073595
 H      1.9671374968    -1.2639184818     2.3467015103
 F      2.5118744391    -0.6540382665     2.7616675170
 H      2.5377745500    -0.3754353508     4.5048174223
 F      2.3589703466     0.0228983553     5.3111971811
 H     -1.7288797677    -0.6808811997     3.2676068779
 F     -1.4851620023    -0.6990313798     2.3837736234
 H     -1.1884768831     0.0167625899     5.1998183521
 F     -1.8216288814    -0.6047123686     4.9679209115
          12
Energy: -41.46455102921348 Kcal/mole
 H      1.1321370868     1.1486658635     5.4839338446
 F      0.5001421650     1.7909762126     5.3139078636
 H      0.1864139205    -0.2570813564     1.5044584023
 F      0.8052946613    -0.9336863096     1.5134787139
 H      2.1162033729    -0.3922059919     2.3642016821
 F      2.7456980249     0.0213198864     2.8872904232
 H      2.5111002562    -0.0726457762     4.5633365656
 F      2.1921408695    -0.0911538088     5.4228779330
 H     -1.2187851213     0.8351809371     2.5955382892
 F     -1.0574369866     0.8902650678     1.6945269030
 H     -0.7951507691     1.0038862860     4.6714508820
 F     -1.4536901357     0.5496782794     4.2232210421
          12
Energy: -41.417105694871964 Kcal/mole
 H      1.6642245034     1.8796232901     5.3658795625
 F      1.4113386958     2.7067246385     5.0611811414
 H      1.3008891654     0.1616096118     1.4005097797
 F      1.2641980488    -0.7326188131     1.6002553330
 H      2.1686258762    -1.0806689798     2.9564157221
 F      2.6669453849    -1.1662832735     3.7214234736
 H      2.2943173629    -0.2186371168     5.1227520073
 F      2.0226943422     0.3245454811     5.8098201261
 H      0.8276393096     2.2577164798     1.7421099879
 F      1.4349326430     1.8450706248     1.1927401621
 H      0.2760892026     2.6821363099     3.8178800218
 F     -0.2087763165     2.6841961959     3.0395547779
          12
Energy: -41.27751248527932 Kcal/mole
 H      3.7810581410     1.8525067689     4.9561650932
 F      3.7052289983     2.4678844208     4.2805547864
 H      0.6778071297    -0.4406192504     3.3170200057
 F      0.9787020560    -1.1535547819     3.8090303423
 H      2.6577142040    -1.2296501432     3.6798875190
 F      3.5735378094    -1.2011372224     3.6432386859
 H      3.9046595597    -0.2430080273     4.9839042536
 F      3.9168377154     0.3351890626     5.6955423764
 H      0.6106828481     1.7732445151     3.0042001804
 F      0.4129578761     1.0175988986     2.5237904200
 H      2.0952872323     2.8125237739     4.0795559194
 F      1.1899313936     2.9395800158     4.0083062401
          12
Energy: -41.39705938874138 Kcal/mole
 H      3.6018949660     1.2253434793     4.7008341578
 F      3.3997666126     1.9012390222     4.1150028307
 H      1.1700970382    -1.1181822792     2.3448355272
 F      1.5018275245    -1.8785688965     2.7355477956
 H      2.9899116277    -1.9102630372     3.5044799697
 F      3.8082112633    -1.9030431024     3.9182704710
 H      3.8668977581    -0.8298812010     5.2132843722
 F      3.7706687524    -0.0874712379     5.7428657400
 H      0.7032667292     1.0354462858     2.4495919487
 F      0.6955303772     0.3734717625     1.8150693885
 H      1.7648380313     2.0947683557     4.0107184129
 F      0.8809396143     2.0053258612     3.7835342834
          12
Energy: -41.285452233952896 Kcal/mole
 H      2.9956447532     0.4898057551     5.3110352137
 F      3.0770572874     1.2713888069     4.8383948298
 H      0.1460607429    -0.5932335654     2.5347020770
 F      0.1020919168    -1.3957307852     2.9762379810
 H      1.6161333481    -2.1017242717     3.4506001003
 F      2.4679743369    -2.2841380614     3.7369235869
 H      2.7092823617    -1.5848309876     5.1671423621
 F      2.7556656303    -1.1183816595     5.9552810660
 H      0.5983271711     1.4559786229     2.4981792880
 F      0.3753827202     0.8664287394     1.8321344647
 H      1.6940614933     2.0200627715     4.3097085227
 F      0.9068844581     2.2793028396     3.9172344443
          12
Energy: -41.06683779922329 Kcal/mole
 H      2.4741117112     0.9796049244     4.3627551192
 F      2.2627325791     1.7475741501     3.9084081913
 H     -0.1760994370    -1.1163055488     2.6775807862
 F     -0.2017514979    -1.7934749251     3.2953773609
 H      1.2773786633    -2.4420775074     3.5101488687
 F      2.1510257679    -2.6450561865     3.7010137225
 H      2.5916548840    -1.2994188811     4.5500754240
 F      2.7294297557    -0.5528479152     5.0644088544
 H     -0.1476193821     1.0868688074     2.2640821825
 F      0.0499718983     0.3308889038     1.7841435706
 H      0.6508449542     2.1382265042     3.7209558747
 F     -0.2115431678     2.2334888762     3.4241380730
          12
Energy: -41.39861393001692 Kcal/mole
 H      2.5813361258     1.0733518093     4.4975651678
 F      2.2872805984     1.9055864641     4.2489573923
 H     -0.6436795493    -1.1832212643     3.2172999318
 F     -0.3823519399    -1.9883963335     3.5698477848
 H      1.1855424696    -2.2302939413     3.2808734227
 F      2.0902125141    -2.1811521651     3.1392888315
 H      2.6637525873    -1.0570722116     4.2588687940
 F      2.9331721121    -0.4512764028     4.8923619334
 H     -0.8458493834     0.9517102653     3.2086531694
 F     -1.0960535988     0.3034921961     2.6102384425
 H      0.6691399983     1.9946102997     4.3261535314
 F     -0.2465328688     2.0156153852     4.3707740061
          12
Energy: -41.160571911406805 Kcal/mole
 H      1.5158472505     1.0841503219     5.1103337870
 F      1.0595551437     1.8772047924     5.0490873991
 H     -0.9138760517    -1.2295583446     2.5946834924
 F     -0.4879458490    -2.0340976911     2.7050868541
 H      1.2249286221    -1.8962459140     2.8067531159
 F      2.1120317713    -1.7221276674     2.9604405876
 H      2.3030010384    -0.8308615596     4.2767297893
 F      2.2936448316    -0.3569645101     5.0617285460
 H     -0.8654015537     0.9444711570     2.4183794371
 F     -1.5445649860     0.3362355916     2.3200151690
 H      0.6499037684     2.0855579273     3.4365037705
 F      0.4150006849     1.9877042437     2.5555189817
          12
Energy: -41.35406556913841 Kcal/mole
 H      1.2240782611     0.9304215054     4.6486085805
 F      1.5043601454     1.7897792421     4.4942215807
 H     -0.7012787838    -0.5378063378     1.2153542542
 F     -0.2210650486    -1.2545539967     0.9046187365
 H      1.0168642036    -1.8136004597     1.9039385038
 F      1.6147714200    -1.9385809629     2.5878799006
 H      1.0925787003    -1.2099814291     3.9956434286
 F      0.7407345937    -0.6632484826     4.6423101200
 H     -0.5957282676     1.3809202590     1.9069547189
 F     -1.3516372923     0.8631247793     1.8698280787
 H      1.0032182678     2.1593394240     2.9627656021
 F      0.7365959202     2.2385676823     2.0889667655
          12
Energy: -41.1338760377059 Kcal/mole
 H      2.5301982358     0.7318766536     4.6152024990
 F      2.9990213747     1.4023637885     4.2010275767
 H     -0.6790561319    -0.8874308515     2.1292535049
 F     -0.4361272666    -1.7666619427     2.0353000341
 H      0.7873946939    -2.3592428914     2.9961461330
 F      1.4628130668    -2.5267019646     3.5933533671
 H      1.5575147803    -1.2369699537     4.5971073307
 F      1.5949627356    -0.4799517990     5.1132566928
 H     -0.1439820401     1.2240343740     2.3501485964
 F     -0.9342423335     0.7626827622     2.4095822481
 H      1.9847972645     1.6710781814     2.9037702898
 F      1.4742633854     1.6985456519     2.1425280838
          12
Energy: -41.28698271651626 Kcal/mole
 H      2.8800104638     0.2296190368     4.6809878631
 F      3.3138410364     0.8685174926     4.1865297785
 H     -0.2122540765    -1.6169622084     1.8073165564
 F     -0.0860767122    -2.5251767900     1.8180191976
 H      1.2876723552    -2.8200595288     2.6604983092
 F      2.0742998507    -2.7582109683     3.1277037659
 H      2.0346007910    -1.7598135131     4.5031660872
 F      1.8988893014    -1.0981732226     5.1234108112
 H      0.5556157109     0.5170993823     1.8537356144
 F     -0.2503313906     0.0900140913     1.9482682747
 H      2.5880488246     1.1766026426     2.7042219830
 F      2.1427344470     1.1963802015     1.9028525593
          12
Energy: -41.3105643214401 Kcal/mole
 H      3.2532912794    -0.4568008520     3.9000118029
 F      3.7338818203    -0.1230611528     3.1939384745
 H     -0.2633851164    -1.5566624816     2.3867714930
 F     -0.1645815037    -2.4637574362     2.2956364862
 H      1.1790659014    -3.1081889414     3.0973867490
 F      1.8772678333    -3.3100875247     3.6565289709
 H      2.1885099418    -2.0246837643     4.6860886207
 F      2.2738711046    -1.1773622985     5.0261603857
 H      0.5194224590     0.5119772895     2.3091852204
 F     -0.1756659040     0.0651873709     2.7068281963
 H      2.6162636632     0.7446532698     2.2788788292
 F      1.9472757430     1.1797620886     1.8271881402
          12
Energy: -41.46520765355072 Kcal/mole
 H      4.5045935642    -0.2809342115     4.0762399142
 F      4.5620283351     0.4306685058     3.5007298624
 H      0.2913809230    -1.6158851933     4.2959777294
 F      0.2125445560    -2.5294538291     4.2878429318
 H      1.7433433298    -2.9613076452     3.8033405874
 F      2.6193288970    -3.0473933000     3.5461878195
 H      3.6226515220    -2.1607755192     4.5464073137
 F      4.1595782127    -1.5825410718     5.0135728655
 H      1.2411480087     0.2374682533     3.4850396646
 F      0.8785266192    -0.0568893435     4.2741837155
 H      3.1210048298     0.6201710252     2.5681853146
 F      2.2698175862     0.5889827111     2.2284846149
          12
Energy: -41.0299125438454 Kcal/mole
 H      4.3413536308     0.0657693066     4.5419894115
 F      4.2033593734     0.7371910534     3.9328593574
 H      0.0863648941    -1.6743395910     4.1513664008
 F      0.2852562581    -2.4125052514     4.6577681022
 H      1.8012050353    -2.9908217063     4.7236120228
 F      2.6718624273    -3.2786338301     4.7265931483
 H      3.8091010741    -2.0969964873     5.1829850337
 F      4.2917894478    -1.3730080002     5.4723664506
 H      0.7709660224    -0.2299344287     2.7671778693
 F     -0.0184057676    -0.3777499800     3.2098196432
 H      3.1378973360     0.1023356892     2.8470850521
 F      2.4703444146    -0.2930884928     2.3583092205
          12
Energy: -41.47737629343109 Kcal/mole
 H      4.4417160260    -0.3506579404     4.0029374796
 F      4.0552806978     0.2718609219     3.4515510423
 H      0.2729843746    -1.6850199692     4.6583318492
 F      0.6324715441    -2.2441402012     5.2900299900
 H      2.1161587505    -2.9895772555     4.9571974610
 F      2.9227059441    -3.3301404248     4.6844570125
 H      4.1523188613    -2.2855420449     4.9639580241
 F      4.8163551597    -1.6538930462     4.9950117988
 H      0.7048268203    -0.6824837898     2.8319670589
 F     -0.0131860604    -0.6252958245     3.3994844945
 H      2.8726720206    -0.3789474827     2.5034130027
 F      2.1986008883    -0.7688452223     2.0191642432
          12
Energy: -41.28233758060762 Kcal/mole
 H      4.1729220639    -0.4029110644     3.9419965571
 F      3.6048226055     0.2909778634     3.7505020107
 H      0.8223450143    -1.6548244304     5.2023414257
 F      1.2315067354    -1.5269731054     6.0129768090
 H      2.6491813998    -2.4222992341     6.0637800665
 F      3.4389526214    -2.8802841580     5.9777554942
 H      4.5791392082    -2.2035076321     4.9094597880
 F      5.0575808399    -1.8357522608     4.2189971953
 H      0.8817538556    -1.4438511624     2.9949591927
 F      0.4349159339    -1.9828327732     3.5871784891
 H      2.4079297015    -0.0537462417     2.6675386622
 F      1.7117534948    -0.3419393463     2.1448796684
          12
Energy: -41.39470046103426 Kcal/mole
 H      4.1547447190    -0.4238563377     2.5455233246
 F      3.5475360896     0.1441535703     2.1588045316
 H      1.1830656291    -1.9163894336     4.9430701507
 F      1.7472451662    -1.6906577988     5.6298275161
 H      3.3676193609    -2.0652171743     5.6712857177
 F      4.2723368424    -2.1833138687     5.5794791303
 H      4.8453959259    -1.8548698331     4.0526848003
 F      5.1076572726    -1.6129376578     3.2079500439
 H      0.6727615918    -1.9463781367     2.7706008584
 F      0.2745215374    -2.2367560721     3.5438889766
 H      2.2559164154    -0.7574742518     1.6937247034
 F      1.5378344792    -1.3023434844     1.5253060219
          12
Energy: -41.57778096665706 Kcal/mole
 H      4.2582134683     0.1574139543     2.5116875237
 F      3.4335092767     0.4254411771     2.2135040161
 H      1.5560808640    -1.5960640490     4.6136023246
 F      2.0563432849    -1.1327332091     5.2267507919
 H      3.6614716697    -1.6011665604     5.1709489584
 F      4.5364908370    -1.8539331744     5.0644618907
 H      5.3046589187    -1.0186549068     3.8696869361
 F      5.5750389625    -0.5181173655     3.1504889093
 H      1.3907389602    -2.2526661078     2.5462377257
 F      0.9426685620    -2.5198671585     3.3003766498
 H      2.6860939200    -0.9010114048     1.5202483917
 F      2.3046319965    -1.7077227103     1.3090786246
          12
Energy: -41.349478091130806 Kcal/mole
 H      4.4107470533     0.4968447651     2.5169034295
 F      3.7722115379     0.7232919444     1.8989365448
 H      1.3045598354    -1.4989651708     4.4442726320
 F      1.8163158974    -1.1657714163     5.1283608245
 H      3.3623997667    -1.8907427744     5.0452585840
 F      4.2100867088    -2.1475299146     4.8078218287
 H      5.1283189916    -0.8841571277     4.0792295746
 F      5.4710005746    -0.1403887645     3.6665954091
 H      1.3458750654    -1.8022606036     2.2471197704
 F      0.7007462044    -1.8790202958     2.8942717636
 H      2.9915045599    -0.6291913404     1.3680718460
 F      2.6513016927    -1.4639522156     1.1997706565
          12
Energy: -41.55262134036309 Kcal/mole
 H      4.3038248509     0.8251318022     2.4976198435
 F      3.5824437998     1.0207115364     1.9663506587
 H      1.5524360315    -1.8161492501     3.6705901218
 F      1.9086646458    -1.4533978246     4.4337425166
 H      3.4890950153    -1.8466452462     4.5374139651
 F      4.3897444732    -1.9892358895     4.4405250473
 H      5.1786706173    -0.6078926729     3.9043152350
 F      5.4594299762     0.1685633227     3.5053424673
 H      1.7315116226    -1.8818975546     1.5270469849
 F      1.1076338146    -2.2574636696     2.0843759488
 H      3.1079937554    -0.3033275026     1.1422776058
 F      2.9631948264    -1.1174188423     0.7458213525
          12
Energy: -41.609273709909786 Kcal/mole
 H      4.8966184728     0.1409695474     1.6291152835
 F      4.7271627744     0.2459869460     0.7340481842
 H      1.6210135057    -2.0681945695     3.3469477961
 F      2.0293021116    -2.4547166789     4.0713717557
 H      3.6464634973    -2.5965229207     3.8659456390
 F      4.5254443870    -2.6276815093     3.6065025086
 H      4.9697491693    -1.0311763307     3.4462917605
 F      5.0663390308    -0.1420763994     3.2436573341
 H      1.5967912041    -1.3642775640     1.2309014477
 F      1.0446717048    -1.3194565325     1.9616846807
 H      3.5361883208    -0.8412438157     0.2861759775
 F      2.9069635087    -1.5013977813     0.1904582800
          12
Energy: -41.58454484532007 Kcal/mole
 H      4.7653911879    -0.1313306887     1.5424067207
 F      4.7635920953    -0.1365696685     0.6254234513
 H      1.3194080754    -2.4483800313     2.8756762818
 F      1.5844521979    -2.9393331079     3.6034164069
 H      3.2492514528    -2.9907165373     3.6433632653
 F      4.1471952306    -2.8477185560     3.5244618387
 H      4.4597001238    -1.2216489351     3.3198580138
 F      4.5782957402    -0.3209416302     3.1951566474
 H      1.7176842839    -1.6941928240     0.9108311981
 F      1.0764522302    -1.5091534814     1.5396959650
 H      3.6731346406    -1.2534581209     0.1112475828
 F      3.0341682735    -1.8760638941    -0.1008208797
          12
Energy: -41.36988904835792 Kcal/mole
 H      5.0774455709     0.2217729876     1.4170484004
 F      4.9373736713     0.3448141972     0.5192011285
 H      1.5440227273    -2.2660022965     3.1020879841
 F      1.9256850114    -2.8986871855     3.6451650800
 H      3.6232966805    -2.8293493745     3.5625302476
 F      4.5205409508    -2.6793330933     3.4470450334
 H      4.8361628967    -1.0825600004     3.1807696106
 F      5.0211773430    -0.1979511311     3.0254447802
 H      1.8356182855    -1.0108156715     1.2551318678
 F      1.3333196215    -0.9693216393     2.0212019021
 H      3.6186086508    -0.6267274801     0.0813640003
 F      2.8366522982    -1.0896054497    -0.0418319728
          12
Energy: -41.51103396801889 Kcal/mole
 H      5.2616203095    -0.5186908748     1.7194506148
 F      5.1571229147    -0.4220719834     0.8135620542
 H      1.4799626670    -1.9642391152     3.2993605105
 F      1.6480184344    -2.6929393844     3.8300602154
 H      3.2550753967    -3.1218380607     3.6001040224
 F      4.1060582755    -3.2558946879     3.2858653221
 H      4.9296156705    -1.8404164496     3.3594547000
 F      5.2102105836    -0.9685545126     3.3145965065
 H      1.8184642541    -0.6989370184     1.4804236448
 F      1.4691096494    -0.6228368010     2.3248460019
 H      3.6413198041    -0.7000453145     0.2821303904
 F      2.7598901793    -0.8792830469     0.1036796922
          12
Energy: -41.48759928674295 Kcal/mole
 H      5.5820843592    -0.5807817921     1.3572818955
 F      5.4655092837    -0.4735065957     0.4540702459
 H      1.7640154699    -1.6693720832     3.0829578538
 F      1.9101620658    -2.5185871627     3.3965880839
 H      3.4806151951    -3.0836370361     3.3126620862
 F      4.3784712199    -3.2032142534     3.1696766046
 H      5.2107253638    -1.7349134915     3.0989537582
 F      5.5150540321    -0.8762051873     2.9945836960
 H      2.0935718815    -0.1539174797     1.5789644775
 F      1.7246540915    -0.1623357619     2.4184391922
 H      3.8329911369    -0.2005463358     0.1410136554
 F      2.9169341151    -0.2418539551     0.1363005490
          12
Energy: -41.475762147956516 Kcal/mole
 H      5.4197340981    -0.2011761392     1.4171081126
 F      5.2094708070     0.2702989304     0.6592231563