          12
Energy: -41.534312908387506 Kcal/mole
 H      5.6136112685     0.0831472103     1.3866391209
 F      5.0391306964     0.7454977454     1.1180263121
 H      2.2537014150    -1.1427815704     3.8262802291
 F      2.8065365143    -1.7320293540     4.2599268623
 H      3.8989818730    -2.4272283231     3.2552735335
 F      4.4722522052    -2.7386225209     2.6108483789
 H      5.9273499737    -1.8484372004     2.2204584013
 F      6.5060444570    -1.2080830624     1.9107032192
 H      1.7888198420    -0.0156617714     2.0562326998
 F      1.4451567516    -0.0499851954     2.9057069978
 H      3.4787364064     0.2820969969     0.7729208009
 F      2.6430554974    -0.0752638388     0.6511848099
          12
Energy: -41.577170528488296 Kcal/mole
 H      5.7729432036     0.4195896087     1.4184360907
 F      5.3444142245     1.1375894222     1.0419680550
 H      2.3837756315    -0.5861247903     3.7784863551
 F      2.9948232282    -1.0216021196     4.3056194789
 H      3.7796131759    -1.9972584668     3.2349050188
 F      4.2263975167    -2.4065331158     2.5465976641
 H      5.6826030862    -1.5834415919     2.3357071086
 F      6.3473972525    -0.9668935900     2.1985711261
 H      1.9420567766     0.2378885405     1.8503794845
 F      1.4448299020     0.1068739236     2.6096486102
 H      3.7845665881     0.7836485029     0.5723782589
 F      2.9383652684     0.4439947317     0.4750764487
          12
Energy: -41.56329166451064 Kcal/mole
 H      5.1351849041     0.5438257742     1.1319090552
 F      4.7772478386     1.3818188861     1.0292562355
 H      1.8203797786    -0.2457792148     3.6148083702
 F      2.3904435295    -0.8495390515     4.0038975367
 H      2.9391500187    -1.8109298794     2.7880035260
 F      3.2800774373    -2.1551502637     2.0094344397
 H      4.7194421148    -1.4706736804     1.5388566012
 F      5.5035294164    -1.0681236508     1.2857764219
 H      1.3735273445     1.0851307794     1.9415809929
 F      0.9698350892     0.9309425068     2.7503748724
 H      3.1845236457     1.2583541202     0.6761442850
 F      2.2821052757     1.1628596709     0.5441939317
          12
Energy: -41.322860636850294 Kcal/mole
 H      4.6843577817     0.5004054722     0.8184738454
 F      4.4180086942     1.2674870272     1.2445408021
 H      2.0284343765    -0.2277867445     3.6445958379
 F      2.8577187411    -0.5762207710     3.8228377287
 H      3.2717249836    -1.6896254568     2.6852707107
 F      3.5203540294    -2.2046536340     1.9684593169
 H      4.5149625234    -1.5148419315     0.7480571259
 F      4.9291490912    -0.9581875161     0.1484953285
 H      1.0245087700     0.9113096655     2.3086846070
 F      0.7208979613     0.6043756444     3.1176969577
 H      2.7982976563     1.2637761455     0.9929983049
 F      1.8863503787     1.2570554323     0.8971025554
          12
Energy: -41.24928619652377 Kcal/mole
 H      4.8838896637     0.5927382938     0.9767293568
 F      4.5750812952     1.4361428169     1.1616488044
 H      2.4994097418     0.0557321133     3.8170264990
 F      3.2302494941    -0.4980247730     3.8277767240
 H      3.2321671216    -1.7649054132     2.6895577229
 F      3.3386555417    -2.2659086771     1.9289363020
 H      4.5582742546    -1.5920495076     1.0103949682
 F      5.1383545253    -1.0054408587     0.6100374123
 H      1.4304250306     1.4989230670     2.5651075651
 F      1.2684016816     1.2279735488     3.4260511132
 H      2.9507254573     1.6730066949     1.0005168852
 F      2.0376290154     1.7548192781     0.9792898010
          12
Energy: -41.46234755167174 Kcal/mole
 H      5.0060302135     0.6968684953     1.0141931066
 F      4.7478721384     1.5500675940     1.2293551530
 H      2.3757175067    -0.2715927307     4.1033633717
 F      3.0559161183    -0.8602558241     4.2813931762
 H      3.1968908616    -1.7140382070     2.8470600124
 F      3.2960329128    -2.0543911096     2.0013533520
 H      4.5267011668    -1.4182871704     1.1081903094
 F      5.1927983257    -0.9175805412     0.7254417674
 H      1.6128688526     1.1850135934     2.5357712517
 F      1.4099257120     0.9052865315     3.3851568253
 H      3.0945788559     1.6449346429     1.0712157744
 F      2.1777867832     1.6266588260     1.0643390059
          12
Energy: -41.267030294401366 Kcal/mole
 H      4.8378368819     0.4228666038     1.2004809754
 F      4.5933750467     1.2719959763     1.4456476937
 H      2.3712164412    -0.1833212368     4.2000608244
 F      3.1895572362    -0.5671831584     4.3545191310
 H      3.3055275615    -1.8164195092     3.2853838310
 F      3.2846231031    -2.4113710288     2.5878992843
 H      4.4626648443    -1.7428967606     1.5741776839
 F      5.0581657786    -1.2416518820     1.0893878234
 H      1.3717233994     0.9763223103     2.8014551027
 F      1.0694097115     0.6153138471     3.5883275978
 H      2.9082062172     1.4289013095     1.3108110987
 F      1.9921765826     1.4085582917     1.2738669513
          12
Energy: -41.54645856759953 Kcal/mole
 H      4.6688721195     1.1895605245     1.0720854666
 F      4.1684855480     1.9453125433     1.2111579846
 H      2.5399030990     0.0478274799     4.4865667292
 F      3.1665405969    -0.6129086205     4.5944659963
 H      3.6610069993    -1.5060841710     3.2771568697
 F      3.9558013223    -1.9015318788     2.5041067953
 H      4.9538815796    -0.9423474889     1.5497175596
 F      5.4273299856    -0.3054970668     1.0901991740
 H      1.3571911711     1.3045472835     3.0481411255
 F      1.3492384463     1.1866247956     3.9574925653
 H      2.5350465592     1.6074396721     1.2796078945
 F      1.6594838766     1.3572231060     1.3876387184
          12
Energy: -41.32462150299952 Kcal/mole
 H      4.6983064411     1.8933583723     1.5834374442
 F      4.3631794744     2.6264978052     2.0205707054
 H      2.3168880539     0.3924231272     4.2945967857
 F      3.0535466287    -0.1361857131     4.4316947004
 H      3.2286986713    -0.9008398542     2.9259639651
 F      3.2837088167    -1.1879811310     2.0568191146
 H      4.4284463694    -0.2170065516     1.2153043397
 F      5.0379887321     0.4173766951     0.9566443228
 H      1.2391293699     1.9430781878     3.2244939229
 F      1.0583233995     1.4042633922     3.9441305098
 H      2.7192272927     2.7543989185     1.7614551630
 F      1.8062515417     2.6693856109     1.7497497956
          12
Energy: -41.42697591777568 Kcal/mole
 H      4.4515858660     2.2819524482     1.4943790088
 F      3.9122437608     3.0046077491     1.3277404489
 H      2.5529432169     0.2613794727     5.0792082154
 F      2.9476103480    -0.5662857285     5.0693507132
 H      3.4235674369    -0.8521117438     3.5379691568
 F      3.5775251934    -0.8625005887     2.6340454425
 H      4.6715546094     0.2265613923     2.1530226799
 F      5.2459962640     0.8885442400     1.8834220591
 H      1.7565991222     2.1101382971     4.0990410849
 F      1.8861027518     1.7596944153     4.9364817668
 H      2.4721185468     2.7501325990     2.0524298827
 F      1.6948205717     2.5715553183     2.5049859706
          12
Energy: -41.44878125044929 Kcal/mole
 H      4.5743376139     2.6903047353     2.5575063456
 F      4.1536660946     3.4289769110     2.2135762806
 H      1.6687523176     0.1324623065     4.7090834690
 F      1.7847137185    -0.7021026711     4.3472226509
 H      2.7809518346    -0.4966878104     3.0005600371
 F      3.3537466741    -0.2667244917     2.3223919577
 H      4.6647144146     0.6298370342     2.9366844240
 F      5.2063504583     1.3077292703     3.2333012010
 H      1.6247269169     2.3475451723     4.2436992178
 F      1.6905175044     1.8484892774     5.0101871905
 H      2.5409526067     3.3460654327     2.5965525394
 F      1.6785135037     3.2066602863     2.8752172103
          12
Energy: -41.49828924140468 Kcal/mole
 H      4.7708639198     2.5964873446     1.9586187468
 F      4.3818765407     3.2309392867     1.4228496248
 H      2.1657834857     0.3779464202     4.4403551849
 F      2.0882612783    -0.5182999058     4.2625299040
 H      3.2546194817    -0.8901061523     3.0844010444
 F      3.9085930909    -0.8798944606     2.4416699655
 H      4.8192217265     0.5005874638     2.6379235679
 F      5.2321799158     1.2903138145     2.8539949103
 H      2.0771694288     2.3483028148     3.6853369797
 F      2.3318092292     1.9935691421     4.4916939686
 H      2.7624258960     3.0561562073     1.8194569224
 F      1.9295285504     2.8415587582     2.1374489766
          12
Energy: -41.68527909073245 Kcal/mole
 H      4.8341921591     2.5280905972     2.0449163094
 F      4.3469878355     3.3038985406     2.0043825927
 H      2.3335423285     0.3271140257     4.9504059696
 F      2.6819852909    -0.5065254210     4.7938116695
 H      3.2722099965    -0.7051872896     3.2173123733
 F      3.6255304935    -0.6359620880     2.3739491669
 H      4.9556149022     0.3905139700     2.2492136466
 F      5.5854698079     1.0568911388     2.2598563203
 H      1.8518859325     2.2551450777     4.1304426531
 F      1.8461162173     1.9504977859     4.9953390272
 H      2.7706691058     2.9794642403     2.2935353456
 F      1.9405996138     2.6589611365     2.5152364930
          12
Energy: -41.494199344126514 Kcal/mole
 H      4.7254950755     1.9010463035     2.0639369421
 F      4.2166824386     2.4209953931     1.5056792553
 H      1.4993581603     0.3232186974     4.4204930669
 F      1.4322962373    -0.4825031823     3.9878223481
 H      2.9454407433    -1.0635916847     3.5036915362
 F      3.7937603050    -1.2376790128     3.2021347035
 H      4.8423606545     0.0788254446     3.1828197423
 F      5.3122317852     0.8647971120     3.2313857662
 H      1.7635859369     2.3628022319     4.0564561623
 F      1.7455531123     1.9240248792     4.8614643933
 H      2.7138107706     2.8853242643     2.1203978178
 F      1.9300837517     3.0891198360     2.5506632300
          12
Energy: -41.60218069047971 Kcal/mole
 H      4.9894550443     2.3196744122     2.6094331372
 F      4.7627583005     3.1747195410     2.3677817065
 H      1.5389607992     0.3864872151     4.0616161201
 F      1.3244340267    -0.2342596915     3.4216625735
 H      2.6406179072    -0.5527329169     2.5117758743
 F      3.4333990844    -0.6896110396     2.0717174866
 H      4.6646358760     0.1900445746     2.7138392955
 F      5.2628647576     0.7812552360     3.0791900298
 H      2.2683542224     2.4340890375     4.5112921604
 F      2.1729819281     1.6629367455     4.9982390447
 H      3.2797613127     3.5876899848     3.0548256420
 F      2.4659126576     3.7154246694     3.4575950760
          12
Energy: -41.38196034503687 Kcal/mole
 H      4.9657380783     2.2108780927     2.7103473635
 F      4.7716917945     3.0914267121     2.5434067493
 H      1.4120126479     0.4500533088     3.9398146698
 F      1.1264335001    -0.1248603816     3.2849804931
 H      2.4390223200    -0.6407213481     2.4218640932
 F      3.2259060223    -0.8599628790     2.0051673327
 H      4.3810566012     0.0714406775     2.7540248780
 F      4.9024042486     0.6395402932     3.2503599031
 H      2.0956229022     2.4123123411     4.3481844447
 F      2.0313122176     1.6626961112     4.8724254614
 H      3.1816193662     3.4225948197     2.8152247228
 F      2.3159959568     3.5217342345     3.1011556404
          12
Energy: -41.585201204018205 Kcal/mole
 H      4.8118547548     2.3814100477     2.6391924077
 F      4.5377292188     3.1922723065     2.3101839159
 H      1.2198603573     0.4610748279     3.7705424279
 F      1.1041078214    -0.1413046897     3.0889052317
 H      2.5487429741    -0.4744001305     2.3308278452
 F      3.3928090390    -0.6312889108     2.0086052686
 H      4.5978815696     0.2404607776     2.8413446036
 F      5.0770601700     0.8562299422     3.3231175843
 H      1.8357103128     2.4399849648     4.2909502997
 F      1.6882046149     1.6878255505     4.7943261876
 H      3.0269101456     3.4999237723     2.8455789512
 F      2.1725468413     3.5955337113     3.1646574428
          12
Energy: -41.351692397227254 Kcal/mole
 H      4.8253155842     2.1247959210     2.8365456371
 F      4.7614486243     2.9924018960     2.5465975665
 H      0.9787885092     0.4714207048     3.9863519812
 F      0.8386598740    -0.1602515977     3.3365496514
 H      2.1622602677    -0.7162105572     2.4613060002
 F      2.9786326024    -0.8278240475     2.0588539660
 H      3.9740373297     0.1202659550     2.9845291740
 F      4.4769881925     0.6735871104     3.5153447056
 H      1.8169800894     2.4632071378     4.4569744228
 F      1.5387246152     1.7319388734     4.9352103653
 H      3.2844342397     3.5350712725     3.1226474665
 F      2.4384941041     3.6897710249     3.4409904788
          12
Energy: -41.6050149378251 Kcal/mole
 H      5.0640360023     1.9338487118     3.4760020789
 F      5.0843926857     2.8486036438     3.5368134256
 H      1.1550611612     0.2675318769     4.2461634303
 F      1.0438780158    -0.4210478769     3.6508607923
 H      2.1415382972    -0.3723575580     2.3499927564
 F      2.8538070990    -0.2424850330     1.7872358984
 H      4.1435177074     0.0751180550     2.7842696177
 F      4.7882699502     0.2910876866     3.3995262013
 H      1.9230095527     2.2563246187     4.5744200404
 F      1.6567391458     1.5756621837     5.1282139731
 H      3.4875326714     3.3402280885     3.4656585398
 F      2.5715124896     3.3767562400     3.4871462256
          12
Energy: -41.5864296679224 Kcal/mole
 H      5.0948463182     2.1155572552     3.0856468845
 F      5.0430107904     3.0219368374     2.9565030456
 H      1.1685100582     0.4416809989     4.2119238691
 F      0.9069239675    -0.2079247440     3.6199153422
 H      2.1011565531    -0.3594402740     2.4372649940
 F      2.8284544106    -0.3563390880     1.8787695068
 H      4.1917228825     0.1261475173     2.7737070382
 F      4.8536238374     0.4753984229     3.3036126249
 H      2.0917038367     2.3121797851     4.6861456691
 F      1.8810168635     1.5513925979     5.1527320546
 H      3.5080971661     3.4165024718     3.4318670727
 F      2.6435924371     3.5101500477     3.7229868162
          12
Energy: -41.65616769794855 Kcal/mole
 H      4.8442605559     1.9773009950     3.0023836809
 F      4.8069744374     2.8932994116     3.0234940149
 H      1.0551204126     0.5475739928     4.1724159938
 F      0.7964931717    -0.0847476441     3.5607213822
 H      1.7540476650     0.0151758698     2.2040735584
 F      2.3972620799     0.1345643512     1.5614923518
 H      3.8528918568     0.1721975137     2.3886652086
 F      4.5825509725     0.3127682555     2.9259979188
 H      1.9026082959     2.5202851123     4.6183782109
 F      1.6661881240     1.8044999039     5.1405333964
 H      3.2781483344     3.4192584241     3.3176985707
 F      2.4098773198     3.5991499647     3.5514366269
          12
Energy: -41.65233493728107 Kcal/mole
 H      4.8851930736     1.9988046306     3.2849771223
 F      4.9378582248     2.8857895710     3.0583207805
 H      0.8944453971     1.1427685066     4.2296199507
 F      0.6694536128     0.5140396557     3.6011553701
 H      1.8442050806     0.0527087082     2.5447460412
 F      2.5538955593    -0.1502884345     2.0006683037
 H      3.8445608292     0.1550380467     2.9940360149
 F      4.4519894073     0.4074243157     3.6329575232
 H      1.8952992050     2.9736234484     4.7475754389
 F      1.5198813791     2.3119815637     5.2596110552
 H      3.5063182822     3.6743010311     3.4911913504
 F      2.6793771908     4.0005311702     3.7162054117
          12
Energy: -41.63450953402466 Kcal/mole
 H      4.8418279015     1.8611919814     2.9375233430
 F      4.9091510809     2.7555878613     2.7467024856
 H      0.9417132299     1.4426652623     3.8926124498
 F      0.6754860373     1.0307971557     3.1177726311
 H      1.7244162235    -0.1669292420     2.6127142869
 F      2.4168658221    -0.7099001807     2.3546733733
 H      3.8383382621    -0.1613906976     3.0076852296
 F      4.5750775951     0.2592901405     3.3557251520
 H      2.2609366884     2.9490788609     4.9116616635
 F      1.7742697688     2.2157804591     5.1691840181
 H      3.9530276024     3.6816679128     3.7864511612
 F      3.3196206213     4.0778404436     4.3181765810
          12
Energy: -41.600833398359356 Kcal/mole
 H      4.4414326971     2.1266122859     2.9834001245
 F      4.2466770017     3.0037415723     2.8000877296
 H      1.0101859335     1.7293240388     3.6112521285
 F      1.0659517098     1.4590075277     2.7367761928
 H      1.8493498070    -0.0094310489     2.4173062457
 F      2.4885845864    -0.6627574664     2.3436008257
 H      3.8703804240     0.0456755388     2.8997581665
 F      4.5442484996     0.5360039577     3.2823399986
 H      1.8092620340     2.9598924107     5.0994635342
 F      1.2007385283     2.2757496258     5.1498301201
 H      3.5164528760     3.7755131600     4.0739115952
 F      3.0099010990     4.0449993481     4.7892237589
          12
Energy: -41.67088823484326 Kcal/mole
 H      4.6265083780     2.1848587567     2.8910389642
 F      4.4309276641     3.0798148604     2.9321577775
 H      1.0447677597     1.4609651381     3.4869361880
 F      0.8446941124     1.4615838294     2.5920288449
 H      1.9196814101     0.5162076012     1.7414318406
 F      2.5727797676    -0.0403902578     1.4180893615
 H      4.0223814520     0.2441471006     2.2295288911
 F      4.7480034270     0.5431081695     2.7038537046
 H      2.1274833834     2.2997071422     5.1525564149
 F      1.6050704887     1.5511257457     5.0653803837
 H      3.6012885912     3.5148386367     4.3156743527
 F      3.1039674818     3.6036675767     5.0809652344
          12
Energy: -41.49358344735771 Kcal/mole
 H      4.5203261115     2.2839302820     2.6062504748
 F      4.1587581405     3.1238908778     2.5382519463
 H      1.1020189204     1.8343462482     3.7099131694
 F      0.9064046095     1.5996424550     2.8453102717
 H      1.9615519189     0.4511848859     2.2688371113
 F      2.6667399292    -0.0860753305     2.0344222441
 H      4.1575702072     0.3238329064     2.6342485430
 F      4.9244551086     0.7340366760     2.9249535745
 H      2.2201683946     2.9020538427     5.1481564309
 F      1.6695501038     2.1746199662     5.2406142766
 H      3.7652882567     3.8247080231     4.0341152020
 F      3.3723249548     4.0717288847     4.8249688783
          12
Energy: -41.64717067098877 Kcal/mole
 H      4.7657816563     2.1912512202     2.5899583858
 F      4.7137295528     3.1022558422     2.6807887621
 H      1.0651861387     2.0093319270     3.3733534809
 F      0.9748318492     1.8308013666     2.4784501669
 H      1.8193697930     0.5200039154     1.9757251872
 F      2.3723858993    -0.1787064796     1.7592396908
 H      3.9019282305     0.2303646047     2.2085851250
 F      4.6852784695     0.5305477345     2.5789113213
 H      2.1618737714     2.9212652089     5.0038006139
 F      1.4899497534     2.2989251893     4.9579747052
 H      3.9767189580     3.7528528231     4.0743222916
 F      3.5003934365     3.9642170930     4.8288606558
          12
Energy: -41.62399674304439 Kcal/mole
 H      4.3774153211     2.2742732452     2.5471638131
 F      4.2786247886     3.1457625222     2.2795150306
 H      0.9998974299     1.6739258048     3.6052076181
 F      0.7055397515     1.2985166595     2.8220661681
 H      1.7219346863     0.1692715594     2.1096123460
 F      2.3858858830    -0.3800554626     1.7960878153
 H      3.6766206491     0.1986902064     2.6365360705
 F      4.2959785922     0.6920463149     3.0990125441
 H      2.1266358819     3.1115744841     4.8118925545
 F      1.6428599020     2.3555712394     4.9997991675
 H      3.5327341184     4.0862384279     3.4894144370
 F      3.0410617098     4.3885471254     4.2019849205
          12
Energy: -41.73151096734543 Kcal/mole
 H      4.3276941865     2.5263848040     2.3745179325
 F      4.1692760214     3.4294335353     2.3917131023
 H      0.8326671469     1.7990745324     3.4613545124
 F      0.5692907493     1.5866370660     2.6090680605
 H      1.5228844922     0.3509110112     2.0603290813
 F      2.1759946830    -0.2353550234     1.7945693866
 H      3.6589828874     0.4393181555     2.2254123106
 F      4.4079778902     0.8782699556     2.5207372216
 H      2.0470147458     2.9313961932     4.8894851141
 F      1.5325570533     2.1726273145     4.9116677940
 H      3.5318539294     4.0099957515     3.8660196658
 F      3.0994595314     4.1785533317     4.6569131015
          12
Energy: -41.55153358463417 Kcal/mole
 H      4.0490833002     2.4750752794     2.0968806726
 F      3.7963564465     3.3373745951     1.9139653161
 H      0.8537166560     1.3107868450     4.0665324286
 F      0.4047637312     0.9151201803     3.3717100328
 H      1.4025965436    -0.0028835107     2.3958715887
 F      2.0718605804    -0.3574798538     1.8789227686
 H      3.5617544535     0.3704789100     2.1578905408
 F      4.2802045794     0.8903948459     2.3911411274
 H      1.9919184927     2.9129929597     4.8546546393
 F      1.7754897008     2.0810544513     5.1739129928
 H      3.0171130934     4.0650547079     3.2298874312
 F      2.5669109935     4.2518603370     4.0066182251
          12
Energy: -41.70791597479911 Kcal/mole
 H      3.8627971807     2.6387319376     2.2189039818
 F      3.5552111658     3.4381418640     1.8914538130
 H      0.6275260290     1.1122196235     4.0012499411
 F      0.2905733871     0.5488859543     3.3609319776
 H      1.5410339962    -0.1892894945     2.5937473687
 F      2.3012980130    -0.5024703411     2.1877850773
 H      3.5270808348     0.5009321756     2.6651271141
 F      4.1604724693     1.1148834675     2.9156622385
 H      1.6061395715     2.9803604393     4.6064843087
 F      1.4816832350     2.1566821841     4.9898297825
 H      2.5279312797     4.0898115873     3.0067324419
 F      1.9154040322     4.3189391610     3.6495387316
          12
Energy: -41.639140271688035 Kcal/mole
 H      3.7742598957     2.7226029404     1.9373665597
 F      3.3565664064     3.4889244633     1.6559905258
 H      0.6086131195     1.2455672618     3.8053182774
 F      0.3081455225     0.7003241222     3.1320292296
 H      1.6171141160    -0.0753517973     2.3759294443
 F      2.3937315458    -0.3578657702     1.9785125061
 H      3.7347886044     0.6203333307     2.2707449672
 F      4.3300299082     1.2763170817     2.5079413176
 H      1.5742524732     3.0796565328     4.5255909247
 F      1.4334074366     2.2358824296     4.8558891815
 H      2.4099081981     4.1742111776     2.8610902252
 F      1.9549126280     4.4543937814     3.6063188745
          12
Energy: -41.72550850845698 Kcal/mole
 H      3.6347652417     2.5206236811     1.7707123878
 F      3.1700563644     3.2825454988     1.5599760521
 H      0.8188928311     1.2170925885     3.8170626162
 F      0.5841532890     0.6985383470     3.0981134900
 H      1.7449568486    -0.3416431656     2.4967685033
 F      2.4879269975    -0.7540970338     2.1521438313
 H      3.7141240940     0.3596336862     2.2126516770
 F      4.3005645533     1.0633652186     2.2543472169
 H      1.6504229838     2.9811210528     4.5407010487
 F      1.4820987161     2.1877871460     4.9686931669
 H      2.4248532798     4.0438181724     2.8671190071
 F      1.9990112720     4.3366053241     3.6246302402
          12
Energy: -41.65079070912324 Kcal/mole
 H      3.6287466561     2.4320633864     1.7675999523
 F      3.0254899585     3.1122261445     1.6478127269
 H      0.8162138698     1.1092249288     3.8714508080
 F      0.6904348263     0.6168147473     3.1081678687
 H      1.9064432193    -0.3595898027     2.4469895041
 F      2.6305798589    -0.7737913823     2.0662636465
 H      3.8413296197     0.3412647606     2.1396580682
 F      4.4299651600     1.0360580629     2.2476370841
 H      1.5430485542     2.9101281040     4.7749757654
 F      1.1535836330     2.1492883431     5.1071337599
 H      2.5772557753     3.8072037334     3.0764011604
 F      2.3581618463     4.0986542663     3.9177949071
          12
Energy: -41.65997150578886 Kcal/mole
 H      3.4860909354     2.5947962585     1.6366264219
 F      3.0285383344     3.3887858562     1.6032327707
 H      0.8841879770     1.3347318966     3.7898397345
 F      0.6421362040     1.0074703108     2.9681343167
 H      1.7277709698    -0.1819717602     2.5493843222
 F      2.4676177613    -0.6854098793     2.3492199265
 H      3.6578281556     0.4036221983     1.9297939933
 F      4.2215583754     1.1158329986     1.8038852359
 H      1.8566105753     2.9415516800     4.8076589115
 F      1.5445137706     2.1394981707     5.1241944587
 H      2.7234246627     3.9710562632     3.1241198130
 F      2.5233120552     4.2102017569     3.9864732076
          12
Energy: -41.719529703451855 Kcal/mole
 H      3.5291007786     2.6909210469     1.7497789226
 F      2.9919437804     3.4256709773     1.6380028113
 H      1.0648922579     1.0801574211     4.0827004146
 F      0.7043006474     0.5668341582     3.4138492216
 H      1.8907106203    -0.2983385298     2.6248720773
 F      2.6428104185    -0.6116090694     2.2040437719
 H      3.8231172465     0.5525003809     2.0882485368
 F      4.3453110665     1.3058914813     2.1128343921
 H      1.8364297875     2.9319375200     4.7936747056
 F      1.8175815055     2.0945920163     5.1670193851
 H      2.4200121071     4.0697017206     3.0559000738
 F      2.0738282779     4.3159039294     3.8685686587
          12
Energy: -41.73045796708678 Kcal/mole
 H      3.5633260881     2.9327793905     1.7750926994
 F      3.0380354954     3.6659379684     1.6094506368
 H      1.0512983660     1.2592967724     3.9239633946
 F      0.6882060131     0.8699894444     3.1773090250
 H      1.8765461439    -0.0034289032     2.3780500482
 F      2.6286607695    -0.3850125362     2.0180409915
 H      3.8282342168     0.7777220369     2.0715764312
 F      4.3516937015     1.5237368679     2.1732673350
 H      1.9574032668     2.9680984034     4.7330408046
 F      1.9430739200     2.1034798962     5.0381940561
 H      2.3408664833     4.2181526106     3.0000543805
 F      1.9600128304     4.3635201388     3.8214603561
          12
Energy: -41.750172774347135 Kcal/mole
 H      3.6009971746     2.9850731900     1.7038737293
 F      3.0682487107     3.7291059471     1.6448539829
 H      0.9851548416     1.3833979078     3.7963837203
 F      0.6820044911     1.0108008124     3.0152561574
 H      1.8635231599     0.0741161852     2.3479149894
 F      2.6421154956    -0.3075586174     2.0495740438
 H      3.8300513228     0.8458382454     2.0655023607
 F      4.3979034793     1.5651797227     2.0968195681
 H      1.9582932594     2.9966664341     4.7414230985
 F      1.7369389632     2.1580103787     5.0389920759
 H      2.5822390589     4.2943417610     3.1582452566
 F      2.3877800172     4.4467018541     4.0413426935
          12
Energy: -41.612315528626254 Kcal/mole
 H      3.7989048918     3.0419431800     1.7518843289
 F      3.3170133213     3.8219218712     1.7692841986
 H      1.0466198336     1.4252714462     3.6397073462
 F      0.8201812804     1.1205141425     2.8049992730
 H      1.9519740564     0.1279412625     2.1310600772
 F      2.6908183948    -0.2951116584     1.7904367226
 H      3.9374231408     0.8273453703     1.7703341882
 F      4.5094448614     1.5348284086     1.8849984878
 H      2.2027362597     2.8786714410     4.8986285600
 F      1.7130930353     2.1196305043     5.0567277988
 H      3.0822566390     4.1833981315     3.3895715039
 F      2.9494825526     4.2552714306     4.2940571428
          12
Energy: -41.72751858500084 Kcal/mole
 H      3.9039061367     2.8580561734     1.8297510428
 F      3.3952373892     3.6184929879     1.7674537197
 H      0.8945828828     1.6911641137     3.5067947881
 F      0.6877918155     1.3333878159     2.6881846396
 H      1.8781229457     0.2558536289     2.2358209628
 F      2.6523475405    -0.2045294121     2.0640282607
 H      3.9864834750     0.7882613506     2.0543491155
 F      4.6377627171     1.4316247760     2.1073382808
 H      2.0164054651     3.1103619218     4.6788087934
 F      1.6075609557     2.3227849124     4.9100178361
 H      3.0625764678     4.2737219890     3.2682548477
 F      2.8183802131     4.4408006289     4.1362075638
          12
Energy: -41.73559630499565 Kcal/mole
 H      3.9345583464     2.8657352292     1.9161652042
 F      3.5082567834     3.6651009590     1.7741426445
 H      0.7383769015     1.6648469821     3.5220835673
 F      0.6385322072     1.3216853570     2.6775954761
 H      1.8508257319     0.2131964119     2.2817533386
 F      2.5994654119    -0.2723494616     2.0703938479
 H      3.9637454852     0.7025611592     2.1245357829
 F      4.5924917539     1.3644449411     2.2110053664
 H      1.6883131408     3.1246002556     4.6884438093
 F      1.2059160020     2.3911293214     4.9534011436
 H      2.9102900211     4.2035649420     3.2223016335
 F      2.5894857865     4.3669865788     4.0656681088
          12
Energy: -41.69453985797233 Kcal/mole
 H      3.8233060495     2.8663414676     1.8375673303
 F      3.3339470334     3.6406122032     1.7937314854
 H      0.8713291041     1.5965787857     3.5383371349
 F      0.6972427329     1.2436266147     2.7100813167
 H      1.8732362738     0.1984583364     2.2649510594
 F      2.6303700148    -0.2975904527     2.1180732291
 H      3.9419379396     0.7377075481     2.0989522413
 F      4.5624071238     1.4119911929     2.1342871800
 H      1.8661423047     2.9815459441     4.8343100393
 F      1.3991461835     2.2072507612     4.9868570568
 H      2.9070304239     4.2047967675     3.3161362128
 F      2.6907600870     4.3054677713     4.2015635053
          12
Energy: -41.68278528705977 Kcal/mole
 H      3.9966074884     2.7459151428     1.9453287742
 F      3.5431410542     3.5423310695     1.9140419587