          12
Energy: -41.88251910630976 Kcal/mole
 H      3.1043869129     2.7246384373     2.3963128352
 F      2.7066800166     3.3807844373     1.8941269619
 H     -0.2256523105     1.1015800705     2.5435872875
 F      0.0615858497     0.6249762540     1.8147306203
 H      1.4607864378    -0.2264944367     2.1384407142
 F      2.2795625009    -0.5575135608     2.3852627110
 H      3.1819371404     0.6759718455     3.0347395723
 F      3.5497602540     1.4528344546     3.3542386234
 H     -0.1124811374     2.8971648505     3.7039280641
 F     -0.4671549597     2.0696861546     3.8782108444
 H      1.4206528790     4.0657814234     2.7101011089
 F      0.6877998610     4.2820443342     3.2170979603
          12
Energy: -41.874598791157695 Kcal/mole
 H      3.0947576214     2.7189232002     2.3963398887
 F      2.7071908283     3.3810876174     1.8941255268
 H     -0.1895796983     1.0952788666     2.5577842297
 F      0.0638745917     0.6223417920     1.8141576793
 H      1.4702357165    -0.2191532309     2.1181261242
 F      2.2790612385    -0.5579029948     2.3863403531
 H      3.1688780269     0.6791555924     3.0287576478
 F      3.5518451298     1.4481083414     3.3495954074
 H     -0.1156374446     2.8984039938     3.6854592496
 F     -0.4395783697     2.0618323175     3.8754569008
 H      1.4108714711     4.0651366715     2.7230209124
 F      0.6744214970     4.2935604057     3.2193605475
          12
Energy: -41.88492234571416 Kcal/mole
 H      3.0814539163     2.7226669387     2.4010389749
 F      2.6907175427     3.3858093921     1.9025851929
 H     -0.2016289229     1.0993250098     2.5472741282
 F      0.0649621148     0.6134747495     1.8166800253
 H      1.4634546022    -0.2497997624     2.1358677215
 F      2.2806130365    -0.5769031479     2.3930533906
 H      3.1710431381     0.6694468817     3.0128935598
 F      3.5635080336     1.4354511660     3.3292758321
 H     -0.1074049949     2.9161511414     3.6851935479
 F     -0.4522412951     2.0851510177     3.8624383514
 H      1.4214455047     4.0700182430     2.7188696468
 F      0.6977477945     4.3031408012     3.2315142577
          12
Energy: -41.88064061497093 Kcal/mole
 H      3.0970718263     2.7095565955     2.3960557718
 F      2.7124910213     3.3738679133     1.8943814976
 H     -0.2117432554     1.1108798966     2.5356317330
 F      0.0654986568     0.6128617895     1.8172976275
 H      1.4666880295    -0.2421925340     2.1354097369
 F      2.2804415107    -0.5773066937     2.3930776856
 H      3.1885027511     0.6596612117     3.0254613547
 F      3.5627833628     1.4306863863     3.3515337451
 H     -0.1068217681     2.9422787561     3.6677969738
 F     -0.4454186276     2.1063885065     3.8337145957
 H      1.4516068822     4.0833487446     2.7236787138
 F      0.7148905221     4.3265919065     3.2125250791
          12
Energy: -41.879678768389596 Kcal/mole
 H      3.1036492117     2.7019299494     2.4162795351
 F      2.7118164119     3.3476497458     1.8962776106
 H     -0.2207288060     1.1442752359     2.5228649043
 F      0.0454952328     0.6421891272     1.8031960217
 H      1.4213859497    -0.2042549394     2.1551432368
 F      2.2279495443    -0.5581363973     2.4103139281
 H      3.1582778104     0.6534354110     3.0571228922
 F      3.5464206769     1.4230472997     3.3700632315
 H     -0.1275573887     2.9610448525     3.6642396645
 F     -0.4831899328     2.1315587562     3.8266198039
 H      1.4576799281     4.0904363562     2.7221035258
 F      0.7277169066     4.3297952312     3.2228532799
          12
Energy: -41.86850478517843 Kcal/mole
 H      3.1436575811     2.7073834246     2.4216656842
 F      2.7412431470     3.3666742447     1.9274114603
 H     -0.2581137859     1.1400518656     2.5194185991
 F      0.0166770471     0.6442789820     1.7985939006
 H      1.4206004234    -0.2015547934     2.1614697718
 F      2.2279912146    -0.5582796338     2.4099783200
 H      3.1747414692     0.6462381469     3.0609140695
 F      3.5853063028     1.4099363266     3.3593945675
 H     -0.1277122664     2.9609032395     3.6631808400
 F     -0.4831817169     2.1315662685     3.8266759721
 H      1.4566704615     4.0805224426     2.7254873015
 F      0.7277704565     4.3303211414     3.2226737785
          12
Energy: -41.88129098292154 Kcal/mole
 H      3.1266740542     2.7416997228     2.4505937382
 F      2.7576954186     3.4079772666     1.9398903006
 H     -0.2380106538     1.1343341985     2.5569636088
 F      0.0169388374     0.6531305545     1.8191744722
 H      1.4248550297    -0.1979262377     2.1253289560
 F      2.2370105191    -0.5378404842     2.3817480780
 H      3.1612431330     0.6704767950     3.0516375159
 F      3.5581262688     1.4280410122     3.3824988663
 H     -0.1051361133     2.9534119311     3.6777838905
 F     -0.4599687409     2.1281625421     3.8620289781
 H      1.4748628603     4.0881760344     2.7251527055
 F      0.7274402026     4.3162199824     3.2049905204
          12
Energy: -41.876677686503 Kcal/mole
 H      3.1162726186     2.6940529826     2.4326924223
 F      2.7281228473     3.3306189689     1.8988268024
 H     -0.2336896378     1.1279664540     2.5563408120
 F      0.0204142375     0.6262853215     1.8320230214
 H      1.4504986272    -0.1946665118     2.1101427992
 F      2.2709405422    -0.5299889898     2.3453510047
 H      3.1905650086     0.6728726398     3.0483782443
 F      3.5736170146     1.4313880317     3.3930731252
 H     -0.0794719342     2.9405913558     3.7140139478
 F     -0.4583990757     2.1221817162     3.8798719691
 H      1.4708736557     4.0414924431     2.7074899114
 F      0.7541823099     4.2919732448     3.2217873767
          12
Energy: -41.890684490004304 Kcal/mole
 H      3.1462874359     2.7081231575     2.4409547413
 F      2.7578039889     3.3577753503     1.9233432656
 H     -0.2289817706     1.1322473746     2.5863917818
 F      0.0129277520     0.6337119754     1.8557542255
 H      1.4537405192    -0.1879710016     2.0868826310
 F      2.2896213680    -0.5050569494     2.2909627826
 H      3.1868171671     0.6847333866     3.0273545662
 F      3.5738158290     1.4307588465     3.3941883827
 H     -0.0634203296     2.9368468601     3.7213740349
 F     -0.4333893851     2.1168330819     3.8991078292
 H      1.4827659899     4.0615493221     2.7374297739
 F      0.7487661416     4.3058090402     3.2298426218
          12
Energy: -41.87868240345094 Kcal/mole
 H      3.1340935831     2.7029858960     2.4434742946
 F      2.7584508446     3.3580478702     1.9232096091
 H     -0.2393313754     1.1307302799     2.5705960064
 F      0.0260381529     0.6380288166     1.8441572399
 H      1.4587031169    -0.1796786718     2.0702576419
 F      2.2946538633    -0.4979530390     2.2721902468
 H      3.1965385017     0.6869348673     3.0123112927
 F      3.5861572274     1.4297502872     3.3828669573
 H     -0.0748220059     2.9438259130     3.6923569861
 F     -0.4384150480     2.1247857050     3.8869391985
 H      1.4845683526     4.0656365277     2.7381107970
 F      0.7486705305     4.3055922234     3.2298064951
          12
Energy: -41.886464313680676 Kcal/mole
 H      3.1620396924     2.7172658539     2.4389021903
 F      2.7579980235     3.3663762764     1.9326463369
 H     -0.2325822361     1.1460581934     2.5602839802
 F      0.0221089214     0.6350601575     1.8427169648
 H      1.4600442783    -0.1761243202     2.0905484985
 F      2.2909529007    -0.4986480929     2.3060903208
 H      3.2115474892     0.6847580705     3.0056864876
 F      3.6196504574     1.4247291925     3.3617534840
 H     -0.0642900387     2.9664441604     3.7242412593
 F     -0.4326360256     2.1415025103     3.8813447534
 H      1.5049965675     4.0697146337     2.7766443610
 F      0.7811469002     4.3280835548     3.2768204898
          12
Energy: -41.87709845916618 Kcal/mole
 H      3.1350099071     2.7075337151     2.4470685367
 F      2.7594318911     3.3668925439     1.9322131311
 H     -0.2245935824     1.1599740655     2.5710239373
 F      0.0224812040     0.6650629275     1.8396512447
 H      1.4536981190    -0.1660140070     2.0846610198
 F      2.2796019830    -0.5073450476     2.2902453776
 H      3.1663621639     0.6776750122     3.0229223761
 F      3.5573152904     1.4158432008     3.4012772071
 H     -0.0258568519     2.9411725227     3.7399669514
 F     -0.3913428583     2.1171482633     3.9081721801
 H      1.5151843959     4.0644793020     2.7820965417
 F      0.7985611498     4.3046812942     3.3013682682
          12
Energy: -41.88590454650304 Kcal/mole
 H      3.1577620691     2.7146716564     2.4389638934
 F      2.7582249415     3.3665138926     1.9326430637
 H     -0.1977045201     1.1370637420     2.5911394613
 F      0.0200379107     0.6521774232     1.8439028912
 H      1.4558958260    -0.1702361812     2.0694709741
 F      2.2794853997    -0.5071210710     2.2910511744
 H      3.1943384223     0.6823274765     3.0016774353
 F      3.6011801763     1.4231467062     3.3574240532
 H      0.0121959238     2.9244264562     3.7560758913
 F     -0.3297430609     2.0931339302     3.9375131173
 H      1.5172105840     4.0608508608     2.7866093790
 F      0.7984536652     4.3048737746     3.3011288726
          12
Energy: -41.87517124995222 Kcal/mole
 H      3.1409627342     2.7016369201     2.4349522869
 F      2.7591161074     3.3672053553     1.9328558701
 H     -0.1716758707     1.1369949128     2.5965851381
 F      0.0359058478     0.6586091606     1.8423001109
 H      1.4714371678    -0.1675111822     2.0647582405
 F      2.3022058038    -0.5077523723     2.2517031682
 H      3.2188409702     0.6694783447     2.9987452627
 F      3.5884757010     1.4206906894     3.3728297171
 H      0.0273390248     2.9235600793     3.7982889029
 F     -0.2895362554     2.0805461101     3.9709345065
 H      1.5194170699     4.0609818529     2.7948258615
 F      0.8032248777     4.3037270883     3.3135092857
          12
Energy: -41.86872121175588 Kcal/mole
 H      3.1549396960     2.7162009443     2.4431310703
 F      2.7583746619     3.3664327674     1.9324220046
 H     -0.1684858364     1.1283811066     2.6217224775
 F      0.0433815175     0.6732876400     1.8543300349
 H      1.4680251482    -0.1649874525     2.0588372395
 F      2.2959129771    -0.5072166199     2.2547197035
 H      3.1994125185     0.6708722279     3.0161015179
 F      3.5895063355     1.4206167471     3.3719090078
 H      0.0732770745     2.9134733837     3.8292871715
 F     -0.2430271310     2.0692681454     3.9970911203
 H      1.5264477849     4.0877523729     2.8042627119
 F      0.8199784408     4.3209414253     3.3403717788
          12
Energy: -41.88078150241864 Kcal/mole
 H      3.1445357472     2.7078568955     2.4325234060
 F      2.7419574420     3.3680573834     1.9396187256
 H     -0.1653202069     1.1418700646     2.6144287757
 F      0.0432135882     0.6725720819     1.8547169489
 H      1.4696766225    -0.1709964488     2.0506116073
 F      2.2974723848    -0.5068233855     2.2576464944
 H      3.2064836427     0.6655669099     3.0047735067
 F      3.5956213596     1.4153889493     3.3614634932
 H      0.0474456397     2.9148607010     3.8089297393
 F     -0.2947756564     2.0812976724     3.9790657492
 H      1.5178308089     4.0730152588     2.7955482328
 F      0.8052230507     4.3094439782     3.3220277135
          12
Energy: -41.87905074121133 Kcal/mole
 H      3.1535974484     2.7275154853     2.4290148918
 F      2.7756153001     3.4009822467     1.9345848999
 H     -0.1764903591     1.1495251467     2.6064628208
 F      0.0438061390     0.6721659975     1.8551395244
 H      1.4576960003    -0.1595466343     2.0709513527
 F      2.2822860547    -0.5093234866     2.2674110068
 H      3.1798699751     0.6823613701     3.0093339544
 F      3.5576175451     1.4301179530     3.3822359068
 H      0.0407259852     2.9154931888     3.7989607787
 F     -0.2944191942     2.0812641203     3.9795945796
 H      1.5283951943     4.0789702329     2.8074622930
 F      0.8046626345     4.3091280805     3.3213957002
          12
Energy: -41.873778801044864 Kcal/mole
 H      3.1412978616     2.7318243903     2.4235802856
 F      2.7634144512     3.4091955680     1.9344367323
 H     -0.2079167632     1.1460433545     2.6223956531
 F      0.0197757543     0.6679082960     1.8737756004
 H      1.4386535269    -0.2006819890     2.0571719046
 F      2.2656555981    -0.5306223283     2.2764797857
 H      3.1682700932     0.6673401984     2.9801849763
 F      3.5736601660     1.4149521927     3.3231488155
 H     -0.0184509228     2.9375194399     3.7861859273
 F     -0.3551805342     2.1046945479     3.9703186735
 H      1.4926580919     4.0697927773     2.7791127144
 F      0.7745035298     4.3057862245     3.2981985626
          12
Energy: -41.89295788509793 Kcal/mole
 H      3.1477197852     2.7263214296     2.4142308842
 F      2.7648861161     3.4150283396     1.9451784629
 H     -0.2126622783     1.1409927732     2.6241421300
 F      0.0200274930     0.6681762177     1.8736829538
 H      1.4276648512    -0.1967766565     2.1160118472
 F      2.2539889347    -0.5417920929     2.3136019724
 H      3.1897655158     0.6615697319     2.9680226210
 F      3.5882518609     1.4129243687     3.3108984624
 H     -0.0152015131     2.9333649815     3.7929011781
 F     -0.3537103396     2.1000600542     3.9715171698
 H      1.4995465651     4.0772718828     2.7853874673
 F      0.7741381122     4.3053894752     3.2978657014
          12
Energy: -41.88874168581819 Kcal/mole
 H      3.1568448537     2.7218693072     2.4100700626
 F      2.7630556828     3.3959041011     1.9289295576
 H     -0.1866749371     1.1693616184     2.6111624357
 F      0.0523027384     0.7189305173     1.8490007116
 H      1.4251277555    -0.1907292926     2.1071776896
 F      2.2412089560    -0.5459103643     2.3279646469
 H      3.1779348209     0.6472343527     2.9867254816
 F      3.5958736947     1.3918285505     3.3210839395
 H     -0.0101293394     2.9291940706     3.7834457767
 F     -0.3539794067     2.1002813114     3.9720187570
 H      1.4998856716     4.0808239611     2.7843006405
 F      0.7741201234     4.3052010457     3.2979233551
          12
Energy: -41.89380743258428 Kcal/mole
 H      3.1444040961     2.7040232921     2.4215550438
 F      2.7549272785     3.3781567341     1.9370543617
 H     -0.1897980279     1.1879067695     2.5967553012
 F      0.0654574327     0.7369986774     1.8401738169
 H      1.4512805766    -0.1782790626     2.0704032841
 F      2.2611668785    -0.5473914110     2.2911503163
 H      3.1880895797     0.6457761144     2.9775772357
 F      3.5953350082     1.3919059067     3.3215692328
 H     -0.0399544508     2.9425935403     3.7760067810
 F     -0.3909049099     2.1144121594     3.9544398931
 H      1.4960236450     4.0723964985     2.7719484971
 F      0.7723344434     4.3131079848     3.2810859244
          12
Energy: -41.888317234272336 Kcal/mole
 H      3.1511571411     2.7038140743     2.4157491116
 F      2.7545690451     3.3781678326     1.9373623530
 H     -0.1857734413     1.1940077722     2.5944361162
 F      0.0652439377     0.7366750333     1.8402968443
 H      1.4518494128    -0.1519723896     2.0708900183
 F      2.2639842872    -0.5256662732     2.2750439484
 H      3.1918275515     0.6472216281     2.9701261216
 F      3.5951367174     1.3918292255     3.3219644972
 H     -0.0207595832     2.9403465076     3.7870717216
 F     -0.3662779834     2.1095626901     3.9640018877
 H      1.4898649589     4.0583903626     2.7871173561
 F      0.7608003277     4.3051878182     3.2855597092
          12
Energy: -41.88430397391298 Kcal/mole
 H      3.1564736254     2.7011854173     2.4093691625
 F      2.7644191605     3.3761992374     1.9281845417
 H     -0.1909322084     1.1901637879     2.5950209779
 F      0.0655175983     0.7368789478     1.8402658188
 H      1.4490845063    -0.1540977795     2.0580847154
 F      2.2589782876    -0.5323008724     2.2628369643
 H      3.1943605035     0.6378697347     2.9722846968
 F      3.5933608591     1.3893432079     3.3143012684
 H     -0.0101866490     2.9443768477     3.7989890846
 F     -0.3773355890     2.1194871952     3.9591381310
 H      1.5322918857     4.0724594294     2.8065178543
 F      0.8084023965     4.3085340561     3.3175381847
          12
Energy: -41.88741074749103 Kcal/mole
 H      3.1571615531     2.6953168734     2.3991192520
 F      2.7640016081     3.3752821302     1.9258735365
 H     -0.1868038392     1.1928877735     2.6056321222
 F      0.0316714718     0.7280884984     1.8459485221
 H      1.4375327866    -0.1519632128     2.0431221835
 F      2.2643307103    -0.5080540242     2.2177461437
 H      3.1896612153     0.6511279356     2.9497243718
 F      3.5936101455     1.3886398910     3.3154980415
 H     -0.0178659668     2.9464719046     3.7785925625
 F     -0.3796749451     2.1223997412     3.9543433310
 H      1.5249510033     4.0648610572     2.7997909086
 F      0.8087918133     4.3089371322     3.3178950336
          12
Energy: -41.886323061879324 Kcal/mole
 H      3.1487886250     2.7110766239     2.4274704498
 F      2.7644457726     3.3744461118     1.9243695709
 H     -0.2063202347     1.1853147885     2.6043479763
 F      0.0327067715     0.7284902277     1.8460166430
 H      1.4209729210    -0.1704324767     2.0699730628
 F      2.2425555083    -0.5308521560     2.2596799606
 H      3.1790445060     0.6527148650     2.9585268053
 F      3.5941733374     1.3885557081     3.3150310927
 H     -0.0378602200     2.9490381417     3.7758130929
 F     -0.3920224298     2.1221705663     3.9539931758
 H      1.5142260696     4.0607218927     2.7741451690
 F      0.7920780026     4.3055619049     3.2835021536
          12
Energy: -41.88970510998308 Kcal/mole
 H      3.1705866485     2.7061553392     2.4063913626
 F      2.7872470290     3.3816791120     1.9189415000
 H     -0.1911629822     1.1802886004     2.6200352107
 F      0.0324513488     0.7083151900     1.8662933910
 H      1.4234865851    -0.1665862712     2.0664865356
 F      2.2424221642    -0.5310561883     2.2598649129
 H      3.1905232205     0.6421326442     2.9674810828
 F      3.5935644181     1.3891170704     3.3145560890
 H     -0.0036908083     2.9391363587     3.7998825674
 F     -0.3610639001     2.1130370226     3.9751918943
 H      1.5257267492     4.0626361578     2.7769446217
 F      0.8006168131     4.3007662956     3.2852738635
          12
Energy: -41.88900912000935 Kcal/mole
 H      3.1540741647     2.6909890562     2.4035458723
 F      2.7608797124     3.3623132692     1.9181481757
 H     -0.1997562410     1.1685056892     2.6247002099
 F      0.0329072013     0.7089402462     1.8660459236
 H      1.4367026217    -0.1666909843     2.0810900442
 F      2.2548603055    -0.5336781551     2.2729947623
 H      3.2076241328     0.6367056836     2.9682447957
 F      3.6113496950     1.3829354941     3.3161467076
 H     -0.0085196646     2.9303168303     3.8037075471
 F     -0.3728623572     2.1044362579     3.9651531494
 H      1.5290399703     4.0505785741     2.8000472541
 F      0.8307508573     4.2995747513     3.3397529316
          12
Energy: -41.8949279468261 Kcal/mole
 H      3.1660508367     2.6953050558     2.3967343446
 F      2.7800327201     3.3883076874     1.9367056864
 H     -0.2081982804     1.1586167424     2.6099239679
 F      0.0209905518     0.6862660108     1.8580953534
 H      1.4174545104    -0.1917475265     2.0920909454
 F      2.2389462771    -0.5428043343     2.2989710918
 H      3.2133517790     0.6320685856     2.9517871603
 F      3.6414220388     1.3752853640     3.2762462067
 H     -0.0101012954     2.9291517356     3.7944690537
 F     -0.3727784554     2.1044980634     3.9656432301
 H      1.5316189604     4.0549337844     2.7972785364
 F      0.8052575221     4.2879041501     3.3062116064
          12
Energy: -41.888998440593866 Kcal/mole
 H      3.1819742250     2.6984781983     2.3864552265
 F      2.7883719992     3.3887967232     1.9288236912
 H     -0.2171384237     1.1527617764     2.6095265390
 F      0.0150137183     0.6802074997     1.8587357302
 H      1.4050128610    -0.1867906882     2.1359380037
 F      2.2131445921    -0.5589511458     2.3579936248
 H      3.2020695706     0.6237968730     2.9704501468
 F      3.6471868825     1.3638489612     3.2788046270
 H     -0.0042382647     2.9245208370     3.7850273709
 F     -0.3730894756     2.1047437219     3.9661440896
 H      1.5291812739     4.0578403795     2.7925073217
 F      0.8053868358     4.2877499619     3.3064647083
          12
Energy: -41.892065040400894 Kcal/mole
 H      3.1887815720     2.7025695094     2.3913050397
 F      2.7906371819     3.3849727381     1.9257989945
 H     -0.2244647445     1.1543210626     2.6204259156
 F      9.404427E-40     0.6873043466     1.8641343788
 H      1.4092201634    -0.1785192328     2.1052143844
 F      2.2308931712    -0.5289125997     2.3124991079
 H      3.2226461786     0.6463828624     2.9547225951
 F      3.6560988957     1.3912515118     3.2680569806
 H     -0.0070143138     2.9161743191     3.8076626060
 F     -0.3632421491     2.0905414688     3.9874433779
 H      1.5244253558     4.0600878086     2.7848920801
 F      0.8056391262     4.2876307410     3.3068686793
          12
Energy: -41.88631980750358 Kcal/mole
 H      3.1686669978     2.6960570730     2.3882757567
 F      2.7838665790     3.3875011765     1.9248939601
 H     -0.2260246658     1.1615528594     2.6154398862
 F      0.0010231929     0.6869207165     1.8643988761
 H      1.4075660584    -0.1838383790     2.0881156814
 F      2.2305657629    -0.5312269263     2.2951946121
 H      3.2021701959     0.6516409341     2.9515073651
 F      3.6355907718     1.3901608149     3.2795683197
 H     -0.0018611267     2.9208037073     3.7859129517
 F     -0.3560619549     2.0946008258     3.9670746802
 H      1.5273553307     4.0504569073     2.7942643276
 F      0.8147152588     4.2829790758     3.3224371868
          12
Energy: -41.89231419673129 Kcal/mole
 H      3.1680893880     2.6891929831     2.3824818649
 F      2.7720077123     3.3619012350     1.9013665835
 H     -0.2127086553     1.1753868460     2.6026855055
 F      0.0188146658     0.7052708179     1.8501718034
 H      1.4113420223    -0.1701316035     2.0968088792
 F      2.2303654567    -0.5319540390     2.2947334581
 H      3.2000330189     0.6502373594     2.9575598823
 F      3.6357041441     1.3902352713     3.2792472477
 H      0.0033318335     2.9195246741     3.7903738698
 F     -0.3563374295     2.0946686756     3.9668380388
 H      1.5313022190     4.0562344902     2.7858316066
 F      0.8237859837     4.2895109671     3.3205201721
          12
Energy: -41.891271722827014 Kcal/mole
 H      3.1829670624     2.6996782176     2.3761239753
 F      2.7802264013     3.3786085005     1.9094949676
 H     -0.1947512434     1.1586503806     2.6337818630
 F      0.0114130844     0.6937448628     1.8707300105
 H      1.4082992487    -0.1746592723     2.1012548494
 F      2.2305268689    -0.5317138567     2.2944976096
 H      3.2121714882     0.6439069091     2.9397548194
 F      3.6482488094     1.3861823615     3.2555913635
 H      0.0379254209     2.9280048175     3.8166320552
 F     -0.3210143947     2.1022170523     3.9901998390
 H      1.5684543012     4.0504625390     2.8299803497
 F      0.8572920691     4.2879869902     3.3579191859
          12
Energy: -41.89538867853045 Kcal/mole
 H      3.1786413807     2.7005677705     2.3644554740
 F      2.7696787477     3.3740174409     1.8953029334
 H     -0.1948610796     1.1704953387     2.6264009837
 F      0.0114189109     0.6931165151     1.8711215491
 H      1.4155719527    -0.1655671106     2.0863313777
 F      2.2408476636    -0.5178429753     2.2753041698
 H      3.2260748931     0.6612623577     2.9228895406
 F      3.6637630255     1.3972189755     3.2510449238
 H      0.0444758959     2.9183413061     3.8255326375
 F     -0.3121421719     2.0912269287     3.9975627521
 H      1.5489046730     4.0490751753     2.8004120052
 F      0.8463665128     4.2912905382     3.3376836791
          12
Energy: -41.895945207592746 Kcal/mole
 H      3.1926937172     2.7019992497     2.3577908027
 F      2.7900569553     3.3896867557     1.9040744463
 H     -0.2224017826     1.1612149641     2.6323869197
 F      0.0034631215     0.6980159731     1.8738879152
 H      1.4082388700    -0.1707649864     2.0960204053
 F      2.2315180559    -0.5256675019     2.2887497143
 H      3.2194056029     0.6435712046     2.9073650002
 F      3.6791996480     1.3734839380     3.2183406225
 H      0.0057702131     2.9303167790     3.8087738529
 F     -0.3632292728     2.1086725203     3.9809048828
 H      1.5557744786     4.0586645102     2.8026773666
 F      0.8428715907     4.2876725744     3.3320295925
          12
Energy: -41.89403770602692 Kcal/mole
 H      3.1852678262     2.6990361022     2.3393944429
 F      2.7700928636     3.3773535572     1.8828813756
 H     -0.2108068983     1.1679023941     2.6316309953
 F      0.0028480397     0.6976612204     1.8739280152
 H      1.4032687415    -0.1706152929     2.0969729082
 F      2.2254938789    -0.5292455182     2.2872862945
 H      3.2378624253     0.6302928805     2.9121562563
 F      3.6782205562     1.3741883225     3.2180864574
 H      0.0060174131     2.9269439647     3.7939144861
 F     -0.3632423862     2.1088514403     3.9816931378
 H      1.5428432333     4.0552608573     2.7881117568
 F      0.8272730198     4.2887469681     3.3118793633
          12
Energy: -41.89432791200505 Kcal/mole
 H      3.1800388242     2.6914228161     2.3587681731
 F      2.7783468757     3.3724232976     1.8942566850
 H     -0.2158832777     1.1704572350     2.6285851121
 F      0.0031173299     0.6975256920     1.8740895923
 H      1.4034222668    -0.1735943432     2.0982823472
 F      2.2219364989    -0.5315926815     2.3050688111
 H      3.2265565492     0.6388842602     2.9079172917
 F      3.6788203068     1.3737325696     3.2183113247
 H      0.0065273072     2.9311608102     3.8145310327
 F     -0.3632694349     2.1086277464     3.9805994777
 H      1.5360925465     4.0480671635     2.7822284299
 F      0.8276311281     4.2891285770     3.3121914602
          12
Energy: -41.88882227769858 Kcal/mole
 H      3.1861405832     2.7025646421     2.3673949823
 F      2.7851548558     3.3816923422     1.8995434959
 H     -0.1971236752     1.1714127231     2.6233699933
 F      0.0141851986     0.7124907694     1.8581065090
 H      1.4044880247    -0.1665461849     2.0838543346
 F      2.2148640681    -0.5350516422     2.3038165956
 H      3.2317226074     0.6331144853     2.9142188845
 F      3.6785462593     1.3740386428     3.2179770398
 H      0.0353906727     2.9156503296     3.8256998610
 F     -0.3206131693     2.0882774259     3.9977589867
 H      1.5357656499     4.0500995115     2.7808730222
 F      0.8276484692     4.2890207656     3.3122633615
          12
Energy: -41.88821635495776 Kcal/mole
 H      3.2113236674     2.7153822570     2.3649623298
 F      2.8005978070     3.4021567946     1.9171520999
 H     -0.1994770197     1.1606746723     2.6370110546
 F      0.0141146482     0.7052202252     1.8703110833
 H      1.4013543167    -0.1645333550     2.0993818695
 F      2.2150303041    -0.5351584182     2.3029928958
 H      3.2293412532     0.6404161479     2.9003474425
 F      3.6786725847     1.3736513065     3.2187128877
 H      0.0380109426     2.9110188501     3.8097184471
 F     -0.3207521685     2.0885231152     3.9986067638
 H      1.5577009517     4.0707949605     2.8007356109
 F      0.8341814159     4.2913974339     3.3191399224
          12
Energy: -41.89528675458283 Kcal/mole
 H      3.1912433834     2.6908943085     2.3565165637
 F      2.7850319943     3.3816328057     1.9106896512
 H     -0.1988943758     1.1769009507     2.6272882621
 F      0.0140837403     0.7043594587     1.8708268550
 H      1.4050493045    -0.1693476474     2.1143596333
 F      2.2168515430    -0.5387223814     2.3274990981
 H      3.2284304739     0.6320734773     2.9217189489
 F      3.6787208994     1.3740938659     3.2175791787
 H      0.0303748525     2.9320593976     3.8186458019
 F     -0.3286508428     2.1059582953     3.9905368106
 H      1.5487955987     4.0524157941     2.7965690673
 F      0.8346538243     4.2923724062     3.3193609479
          12
Energy: -41.88292128801203 Kcal/mole
 H      3.1946949367     2.7132446408     2.3604335866
 F      2.7879605599     3.3977520818     1.9055646934
 H     -0.2243035764     1.1508908850     2.6294543665
 F     -0.0033025573     0.6804890615     1.8739613659
 H      1.3996563463    -0.1633689018     2.1021044502
 F      2.2172420844    -0.5330471378     2.2912619579
 H      3.2355699686     0.6320460667     2.9112088922
 F      3.6783421657     1.3740953200     3.2181367129
 H      0.0318824736     2.9314577689     3.8189116280
 F     -0.3287308186     2.1059902103     3.9905227092
 H      1.5531948645     4.0708638346     2.8090770199
 F      0.8366178787     4.3108487264     3.3285129400
          12
Energy: -41.89001581086782 Kcal/mole
 H      3.1923652934     2.7056622323     2.3509289507
 F      2.7880841421     3.3981543111     1.9060688923
 H     -0.2186510330     1.1617733534     2.6242080100
 F     -0.0036024117     0.6799117717     1.8742396730
 H      1.3919428852    -0.1762789912     2.1110663330
 F      2.2176512657    -0.5323622874     2.2907865507
 H      3.2154689169     0.6382257437     2.9099631335
 F      3.6560718796     1.3759923568     3.2300544547
 H      0.0258945689     2.9261688604     3.8025786644
 F     -0.3486842749     2.1070649686     3.9747660748
 H      1.5568969886     4.0628707653     2.7965588323
 F      0.8433816332     4.2859417091     3.3276183314
          12
Energy: -41.89426649996071 Kcal/mole
 H      3.1857490178     2.6989468756     2.3430994299
 F      2.7820916172     3.3907754962     1.8966435389