          12
Energy: -41.89668027115803 Kcal/mole
 H      3.1379827087     2.6706754348     2.3541836572
 F      2.7206324959     3.3364332219     1.8814529001
 H     -0.2088890792     1.2075795322     2.6010543532
 F      0.0210972163     0.7412187619     1.8457379057
 H      1.3997585886    -0.1675487360     2.0701803711
 F      2.2109302278    -0.5412051369     2.2781959134
 H      3.2029745764     0.6234096065     2.9320552775
 F      3.6312911218     1.3687704587     3.2512278595
 H     -0.0181054918     2.9523190285     3.7887465398
 F     -0.3868289375     2.1305338723     3.9607964679
 H      1.5096459249     4.0542431685     2.7722483671
 F      0.8002429258     4.3083081726     3.2948259772
          12
Energy: -41.8978326372814 Kcal/mole
 H      3.1175372618     2.6563889565     2.3430303468
 F      2.6937873557     3.3151364004     1.8661898890
 H     -0.2143653829     1.2052689605     2.6007888310
 F      0.0213877216     0.7413413324     1.8457519911
 H      1.3959319615    -0.1675448409     2.0867714309
 F      2.2035814621    -0.5473788810     2.2972883804
 H      3.1960511451     0.6236228687     2.9218701146
 F      3.6377665300     1.3666338656     3.2279929285
 H     -0.0287226392     2.9556486726     3.7823987659
 F     -0.3862657224     2.1303572424     3.9611332027
 H      1.5026263370     4.0496448453     2.7650775807
 F      0.8006152988     4.3085521030     3.2952063709
          12
Energy: -41.89217789049815 Kcal/mole
 H      3.1204444802     2.6567947055     2.3409932522
 F      2.6936331345     3.3151148763     1.8662979522
 H     -0.2190923837     1.2062212768     2.5987084926
 F      0.0216384781     0.7412908142     1.8458623482
 H      1.3998232862    -0.1582962322     2.0887915466
 F      2.2033750364    -0.5478694983     2.2971812179
 H      3.2011546746     0.6247037583     2.9120937522
 F      3.6374957996     1.3665765269     3.2285115420
 H     -0.0327615508     2.9577677337     3.7841744258
 F     -0.3860514675     2.1302448311     3.9610390080
 H      1.4940022044     4.0439105729     2.7566351232
 F      0.8010727891     4.3088562929     3.2956542237
          12
Energy: -41.89732916962524 Kcal/mole
 H      3.1312673512     2.6668494679     2.3311492217
 F      2.7044267485     3.3286938448     1.8614066106
 H     -0.2159054823     1.1959159985     2.6059734168
 F      0.0214694203     0.7418374854     1.8454769608
 H      1.3943855351    -0.1664798386     2.0947957424
 F      2.2036634965    -0.5474353769     2.2968627092
 H      3.2157737767     0.6220395913     2.9059521107
 F      3.6579960050     1.3646124299     3.2124061535
 H     -0.0021142212     2.9402908860     3.7942131308
 F     -0.3615398358     2.1157260804     3.9725249617
 H      1.5025067456     4.0541449348     2.7627469579
 F      0.8006216428     4.3083133837     3.2953300050
          12
Energy: -41.89537368510676 Kcal/mole
 H      3.1382463906     2.6680743211     2.3385884006
 F      2.6991932534     3.3259215512     1.8745212021
 H     -0.2056843637     1.1969995122     2.6084394506
 F      0.0209272136     0.7417800075     1.8453461434
 H      1.3990050635    -0.1691220145     2.0861784473
 F      2.2078639265    -0.5479838740     2.2937839174
 H      3.2131619370     0.6240697405     2.9048227842
 F      3.6581345571     1.3645047351     3.2124660616
 H      0.0029640020     2.9402866021     3.8048391228
 F     -0.3618092238     2.1157263077     3.9719612774
 H      1.5200566472     4.0439045046     2.7912459406
 F      0.8225348923     4.3027383955     3.3273032307
          12
Energy: -41.89790192479214 Kcal/mole
 H      3.1416970388     2.6618903725     2.3343207679
 F      2.7164272296     3.3296293032     1.8715472705
 H     -0.2078014032     1.1933719522     2.6099609985
 F      0.0210395176     0.7419724412     1.8452654288
 H      1.4007260892    -0.1681707357     2.0812797680
 F      2.2077726301    -0.5480343371     2.2940437810
 H      3.2109949129     0.6244611247     2.9070318179
 F      3.6582495127     1.3644839731     3.2123488775
 H     -0.0012247461     2.9412196855     3.8004197239
 F     -0.3615870204     2.1156768098     3.9721957163
 H      1.5235293409     4.0464870576     2.7945467542
 F      0.8223506739     4.3026013971     3.3271281302
          12
Energy: -41.89768118064066 Kcal/mole
 H      3.1578196600     2.6712726335     2.3382703225
 F      2.7293564260     3.3370234668     1.8755781084
 H     -0.2046222102     1.1969506908     2.6026910362
 F      0.0233660582     0.7426190865     1.8394786524
 H      1.3967750551    -0.1731397225     2.0875935235
 F      2.2079822233    -0.5477707439     2.2937088509
 H      3.2224951031     0.6203832099     2.8865059443
 F      3.6764408884     1.3536658385     3.1981448549
 H      0.0010500716     2.9402041701     3.8003305308
 F     -0.3617076942     2.1157306805     3.9722004478
 H      1.5177325852     4.0503904671     2.7851729731
 F      0.8226581784     4.3023943302     3.3276253876
          12
Energy: -41.89742383017514 Kcal/mole
 H      3.1521570643     2.6721890564     2.3447474338
 F      2.7296568136     3.3369748527     1.8752345126
 H     -0.2121518768     1.2023963049     2.5971190579
 F      0.0237654896     0.7423302093     1.8397742329
 H      1.4001351600    -0.1655516683     2.0883384101
 F      2.2078039775    -0.5481732726     2.2936693363
 H      3.2240953832     0.6167745227     2.8927584896
 F      3.6763559972     1.3538572710     3.1978131718
 H      0.0051501062     2.9473032573     3.7968775575
 F     -0.3580669701     2.1222202429     3.9648072298
 H      1.5177887642     4.0567644112     2.7651428405
 F      0.8208474820     4.3055148811     3.3067008271
          12
Energy: -41.892697060629104 Kcal/mole
 H      3.1484256709     2.6545685783     2.3332681735
 F      2.7238850777     3.3144729015     1.8587362263
 H     -0.2037412478     1.2079492426     2.5962946728
 F      0.0233193252     0.7420356388     1.8398179647
 H      1.3934134787    -0.1730919053     2.1024759196
 F      2.2058026868    -0.5500613214     2.2994704218
 H      3.2180594205     0.6097190481     2.9141299947
 F      3.6645782093     1.3498569044     3.2202442298
 H      0.0091482866     2.9440549221     3.7898053602
 F     -0.3582790643     2.1223925596     3.9651823936
 H      1.5235153633     4.0418982404     2.7497326252
 F      0.8350801015     4.3001205964     3.2976989611
          12
Energy: -41.895892877456504 Kcal/mole
 H      3.1548608553     2.6476429218     2.3407330205
 F      2.7435082383     3.3212153648     1.8738516774
 H     -0.2168070212     1.1996274873     2.5973305067
 F      0.0240124343     0.7424770887     1.8397630161
 H      1.3992861122    -0.1669365248     2.0906066088
 F      2.2054911572    -0.5503878501     2.3001000613
 H      3.2186221837     0.6106729522     2.9110214454
 F      3.6645483560     1.3498063020     3.2204091311
 H      0.0049859810     2.9446019917     3.7838089824
 F     -0.3580582636     2.1223635388     3.9655004876
 H      1.5263501002     4.0360846538     2.7600252071
 F      0.8246675137     4.2923353399     3.2918768158
          12
Energy: -41.897467712955034 Kcal/mole
 H      3.1687195138     2.6570292334     2.3417472184
 F      2.7427730685     3.3207174427     1.8737978765
 H     -0.2139039325     1.2001460281     2.5979341469
 F      0.0238584321     0.7424495813     1.8397309943
 H      1.4104817495    -0.1536234753     2.0663527864
 F      2.2234984494    -0.5343572723     2.2532608427
 H      3.2320194605     0.6163532707     2.8866355754
 F      3.6792013079     1.3499929907     3.2070886243
 H     -0.0146516448     2.9473891478     3.7835610050
 F     -0.3802061287     2.1250723406     3.9597824224
 H      1.5247341220     4.0363647759     2.7577659651
 F      0.8247532376     4.2923204800     3.2919966634
          12
Energy: -41.895024216490214 Kcal/mole
 H      3.1658796798     2.6485589440     2.3321248370
 F      2.7429237151     3.3211667719     1.8743083216
 H     -0.2034921723     1.2067246378     2.5971221041
 F      0.0233061123     0.7421006012     1.8397740713
 H      1.4077614862    -0.1686710417     2.0581263877
 F      2.2222979069    -0.5405094602     2.2560041525
 H      3.2455329692     0.6125901315     2.8806493955
 F      3.7009756130     1.3468267089     3.1878262935
 H     -0.0100256325     2.9454925285     3.7843835807
 F     -0.3804515280     2.1251729519     3.9597387866
 H      1.5303226350     4.0362212866     2.7652430160
 F      0.8244567799     4.2923280918     3.2916000231
          12
Energy: -41.89692687710996 Kcal/mole
 H      3.1679595870     2.6559142653     2.3408546408
 F      2.7428133809     3.3207765891     1.8738452257
 H     -0.2062346002     1.1923818451     2.6049095717
 F      0.0234515918     0.7428614532     1.8393609642
 H      1.4050884926    -0.1685938619     2.0622254302
 F      2.2188427530    -0.5467997738     2.2510462230
 H      3.2421343736     0.6068476274     2.8794390616
 F      3.6896061859     1.3407584852     3.1988648433
 H     -0.0141894414     2.9468136898     3.7818449208
 F     -0.3802306475     2.1251028673     3.9598734567
 H      1.5293332555     4.0366060958     2.7637323939
 F      0.8245092642     4.2923076786     3.2916801581
          12
Energy: -41.893594117299045 Kcal/mole
 H      3.1613991863     2.6464757438     2.3331742531
 F      2.7431613950     3.3212772809     1.8742526525
 H     -0.2050051585     1.1876459590     2.6064516578
 F      0.0213288481     0.7210900723     1.8501530911
 H      1.4038819196    -0.1719978410     2.0606505096
 F      2.2189067589    -0.5466192006     2.2511297689
 H      3.2389150245     0.6064214782     2.8848804255
 F      3.6894948762     1.3395621682     3.2016950809
 H     -0.0091138603     2.9459293162     3.7884045660
 F     -0.3804998954     2.1251497813     3.9595254827
 H      1.5238048774     4.0334612686     2.7579487079
 F      0.8248025318     4.2924745044     3.2919869693
          12
Energy: -41.89293223139842 Kcal/mole
 H      3.1646263288     2.6540529937     2.3412227005
 F      2.7429902025     3.3208753253     1.8738257010
 H     -0.2068831171     1.1880060580     2.6056645300
 F      0.0214284695     0.7210709699     1.8501948464
 H      1.4023282370    -0.1737184048     2.0639596645
 F      2.2189891782    -0.5465279287     2.2509542259
 H      3.2421893085     0.6063966312     2.8803333550
 F      3.6893211830     1.3395634862     3.2019362925
 H     -0.0200642026     2.9477858001     3.7759866445
 F     -0.3831501331     2.1236747794     3.9488988554
 H      1.5289005655     4.0430137532     2.7601055653
 F      0.8245322174     4.2919677672     3.2918725530
          12
Energy: -41.893152835832296 Kcal/mole
 H      3.1625794316     2.6475406493     2.3336613105
 F      2.7430987857     3.3212207901     1.8742268153
 H     -0.1981423548     1.1820105409     2.6119063000
 F      0.0209647923     0.7213890182     1.8498637349
 H      1.4051000805    -0.1723931793     2.0547611150
 F      2.2188421383    -0.5465982288     2.2514421877
 H      3.2381256822     0.6043751923     2.8908046753
 F      3.6895367490     1.3396707189     3.2013808132
 H      0.0010181989     2.9340958428     3.7893265161
 F     -0.3662896285     2.1138081312     3.9712661491
 H      1.5266631719     4.0352364930     2.7608483801
 F      0.8246509059     4.2923803328     3.2918331484
          12
Energy: -41.89424393035017 Kcal/mole
 H      3.1694575484     2.6550969791     2.3383168771
 F      2.7427339175     3.3208199443     1.8739798482
 H     -0.2129937760     1.1922229078     2.6068347085
 F      0.0136004619     0.7307328934     1.8475119721
 H      1.4008608078    -0.1756470011     2.0665588975
 F      2.2190670219    -0.5464256211     2.2508163426
 H      3.2398652211     0.6101970857     2.8823254385
 F      3.6903555195     1.3462524190     3.1924383815
 H     -0.0093586410     2.9385728171     3.7889321168
 F     -0.3657391612     2.1135706380     3.9712870710
 H      1.5226755651     4.0334711016     2.7564691983
 F      0.8248624393     4.2924739828     3.2920654539
          12
Energy: -41.8983659489036 Kcal/mole
 H      3.1699214014     2.6574967290     2.3458978269
 F      2.7542977415     3.3302574651     1.8816360847
 H     -0.2198375215     1.1863486939     2.6083046643
 F      0.0139635067     0.7310445069     1.8474339943
 H      1.4049152448    -0.1687188899     2.0627224562
 F      2.2188519434    -0.5467931414     2.2510198569
 H      3.2326571076     0.6098309242     2.8815753705
 F      3.6744683414     1.3452101993     3.2054721990
 H     -0.0042862063     2.9357998739     3.7864148551
 F     -0.3660082421     2.1137177363     3.9714206059
 H      1.5352590769     4.0416025930     2.7693145547
 F      0.8241949130     4.2920426259     3.2913840374
          12
Energy: -41.89842242580795 Kcal/mole
 H      3.1688398881     2.6576370689     2.3470665046
 F      2.7543551133     3.3302500204     1.8815740890
 H     -0.2054550758     1.1959067005     2.6067966788
 F      0.0132005512     0.7305374767     1.8475139895
 H      1.4035505766    -0.1720069260     2.0620561615
 F      2.2189243359    -0.5466187187     2.2510552023
 H      3.2308935527     0.6092908559     2.8852344182
 F      3.6745618939     1.3452388487     3.2052780949
 H     -0.0015915893     2.9365889231     3.7954439878
 F     -0.3661511853     2.1136758790     3.9709416313
 H      1.5294759559     4.0417374375     2.7614690226
 F      0.8245016942     4.2920354727     3.2918002247
          12
Energy: -41.895474765073686 Kcal/mole
 H      3.1744303085     2.6581356872     2.3427524656
 F      2.7540585544     3.3302235699     1.8818029388
 H     -0.2125947822     1.1950384125     2.6052352275
 F      0.0135792962     0.7305835374     1.8475968208
 H      1.4064753209    -0.1711511443     2.0514724780
 F      2.2187691850    -0.5466641159     2.2516166423
 H      3.2215595714     0.6127564093     2.8904119473
 F      3.6750570401     1.3450550091     3.2050034390
 H     -0.0088076388     2.9386125058     3.7901939895
 F     -0.3657683906     2.1135685326     3.9712201316
 H      1.5263634857     4.0346419653     2.7687148276
 F      0.8161353358     4.2860403737     3.2914612435
          12
Energy: -41.89641141615846 Kcal/mole
 H      3.1751083330     2.6581826885     2.3443203634
 F      2.7590103448     3.3324974607     1.8827458275
 H     -0.2121195417     1.1799101054     2.6144331979
 F      0.0135540857     0.7313860591     1.8471088898
 H      1.4052680240    -0.1690109768     2.0606239602
 F      2.2188332293    -0.5467776469     2.2511311773
 H      3.2299885588     0.6094781692     2.8860607855
 F      3.6746099017     1.3452289121     3.2052342581
 H     -0.0057075083     2.9360054856     3.7845651870
 F     -0.3659328453     2.1137068290     3.9715187266
 H      1.5216479970     4.0346788344     2.7623535652
 F      0.8163854816     4.2860384178     3.2917986937
          12
Energy: -41.89639004486952 Kcal/mole
 H      3.1806768563     2.6639748462     2.3331057217
 F      2.7638007295     3.3468369470     1.8849956390
 H     -0.2079707390     1.1962667313     2.6058464569
 F      0.0133340014     0.7305183779     1.8475643965
 H      1.3942591943    -0.1783197562     2.0919634807
 F      2.2066221616    -0.5578444403     2.2840999522
 H      3.2252731646     0.6062613034     2.9004397806
 F      3.6748600425     1.3453995594     3.2044714856
 H     -0.0042179052     2.9382252221     3.7977050807
 F     -0.3660118653     2.1135890771     3.9708216856
 H      1.5313408808     4.0459028547     2.7720112275
 F      0.8226937170     4.2916643402     3.2995616891
          12
Energy: -41.89907015893024 Kcal/mole
 H      3.1712486620     2.6644956842     2.3424628060
 F      2.7643008734     3.3468093178     1.8844992673
 H     -0.2211693027     1.1940734726     2.6032124696
 F      0.0140341547     0.7306347252     1.8477041235
 H      1.3942690468    -0.1827842164     2.0833606634
 F      2.2066216389    -0.5576076110     2.2845563118
 H      3.2279629322     0.6065498696     2.8958105331
 F      3.6747173566     1.3453842516     3.2047170565
 H     -0.0218426954     2.9422311467     3.7714379913
 F     -0.3972254193     2.1249133942     3.9502353685
 H      1.5368374424     4.0490632758     2.7779982423
 F      0.8224021371     4.2914966871     3.2992440918
          12
Energy: -41.90165119569576 Kcal/mole
 H      3.1727196927     2.6664622352     2.3440756563
 F      2.7642228386     3.3467049968     1.8844137093
 H     -0.2178260606     1.1931462677     2.5992943421
 F      0.0194575708     0.7293438669     1.8446601186
 H      1.3974857098    -0.1778762400     2.0796427345
 F      2.2064510024    -0.5578679678     2.2847535393
 H      3.2083132041     0.6073890258     2.9110895386
 F      3.6587966625     1.3451835285     3.2170518329
 H     -0.0177058086     2.9415213941     3.7770226364
 F     -0.3974448716     2.1249510450     3.9499391160
 H      1.5284963589     4.0474319015     2.7675085735
 F      0.8228446123     4.2915832277     3.2998005445
          12
Energy: -41.89883218550884 Kcal/mole
 H      3.1781739724     2.6700207762     2.3444459553
 F      2.7639335017     3.3465162244     1.8843940658
 H     -0.2211884046     1.1918937298     2.5989978753
 F      0.0196359354     0.7294103111     1.8446758454
 H      1.3963871701    -0.1767819929     2.0861163911
 F      2.2065092774    -0.5579260150     2.2844101268
 H      3.2123700141     0.6068352552     2.9065166879
 F      3.6585814581     1.3452129048     3.2172944121
 H     -0.0231075097     2.9442311097     3.7780707962
 F     -0.3971583238     2.1248073008     3.9498835135
 H      1.5341347251     4.0553575165     2.7714569601
 F      0.8225455101     4.2911627922     3.2995910917
          12
Energy: -41.9023611183367 Kcal/mole
 H      3.1702567117     2.6663003200     2.3460135873
 F      2.7643534941     3.3467135860     1.8843109066
 H     -0.2173957796     1.1891882871     2.6018466300
 F      0.0194347454     0.7295538286     1.8445247256
 H      1.3949347195    -0.1814062513     2.0832462106
 F      2.2065863265    -0.5576807088     2.2845623832
 H      3.2098681152     0.6093746312     2.9041069461
 F      3.6587141780     1.3450781968     3.2174222433
 H     -0.0184632997     2.9409620353     3.7727752718
 F     -0.3974046884     2.1249807176     3.9501644288
 H      1.5330551575     4.0486246508     2.7730574381
 F      0.8226027786     4.2915199552     3.2995061901
          12
Energy: -41.900176192431815 Kcal/mole
 H      3.1759484476     2.6653543023     2.3395296721
 F      2.7640515606     3.3467637701     1.8846548633
 H     -0.2132607310     1.1916665916     2.6016194184
 F      0.0192153906     0.7294223603     1.8445367786
 H      1.3958542330    -0.1800377913     2.0821072366
 F      2.2065375485    -0.5577533025     2.2846228032
 H      3.2158741353     0.6043783574     2.9073550778
 F      3.6583955726     1.3453432375     3.2172499374
 H     -0.0214575479     2.9444801207     3.7829314418
 F     -0.3972458505     2.1247940913     3.9496256675
 H      1.5318715198     4.0417897785     2.7746643071
 F      0.8226655679     4.2918825293     3.2994209494
          12
Energy: -41.899358210683005 Kcal/mole
 H      3.1686928042     2.6754152935     2.3541603352
 F      2.7614181895     3.3540480341     1.8910469672
 H     -0.2220737818     1.1980390847     2.5949088448
 F      0.0196829026     0.7290843142     1.8448927591
 H      1.3969321668    -0.1768407917     2.0837919522
 F      2.2064803666    -0.5579228959     2.2845334329
 H      3.2141315232     0.6037875185     2.9112882244
 F      3.6584880141     1.3453745802     3.2170412931
 H     -0.0243419493     2.9441476715     3.7750186160
 F     -0.3970928397     2.1248117270     3.9500454246
 H      1.5348380687     4.0512111923     2.7742814886
 F      0.8225081993     4.2913827451     3.2994412570
          12
Energy: -41.89636174717805 Kcal/mole
 H      3.1711146064     2.6716573214     2.3464331039
 F      2.7612897185     3.3542473858     1.8914568790
 H     -0.2271996798     1.1960366749     2.5944872277
 F      0.0199548197     0.7291905375     1.8449151249
 H      1.3935846797    -0.1822582771     2.0793963701
 F      2.2084248615    -0.5557085599     2.2729405883
 H      3.2105523901     0.6080257869     2.8937155961
 F      3.6522528729     1.3453725864     3.2132611810
 H     -0.0250771177     2.9446531815     3.7717031297
 F     -0.4153286935     2.1315665671     3.9374826971
 H      1.5358382554     4.0415713648     2.7973334174
 F      0.8270620959     4.2901131119     3.3234059937
          12
Energy: -41.89657938637305 Kcal/mole
 H      3.1670230801     2.6715134870     2.3481431070
 F      2.7668902026     3.3583979297     1.8910080693
 H     -0.2261444438     1.1940195421     2.5960860365
 F      0.0198988418     0.7292975417     1.8448303118
 H      1.3974525107    -0.1773090625     2.0728847853
 F      2.2082196820    -0.5559711043     2.2732860128
 H      3.2029999807     0.6102754879     2.8991143137
 F      3.6526535107     1.3452532449     3.2129747915
 H     -0.0317789746     2.9449967957     3.7583235749
 F     -0.4149731755     2.1315483391     3.9381924516
 H      1.5237853673     4.0479378877     2.7614337931
 F      0.8091107684     4.2986462056     3.2784198248
          12
Energy: -41.89575176617629 Kcal/mole
 H      3.1668783799     2.6724975314     2.3497442822
 F      2.7668978786     3.3583457284     1.8909231306
 H     -0.2147738330     1.2036426050     2.6016008873
 F      0.0251004980     0.7473587695     1.8432115633
 H      1.3977577440    -0.1741094635     2.0777858541
 F      2.2082034901    -0.5561408357     2.2730260224
 H      3.2089876314     0.6084338510     2.8949437180
 F      3.6523358797     1.3453509395     3.2131960319
 H     -0.0398885473     2.9493763310     3.7742332366
 F     -0.4071659207     2.1294508770     3.9578594352
 H      1.5270037843     4.0434976877     2.7681121822
 F      0.8089400388     4.2988817479     3.2780655517
          12
Energy: -41.89814178529289 Kcal/mole
 H      3.1685499480     2.6731358274     2.3492372403
 F      2.7668092057     3.3583118683     1.8909500280
 H     -0.2211654301     1.2054730080     2.5984403779
 F      0.0254395574     0.7472616708     1.8433792210
 H      1.3982864287    -0.1751761589     2.0735561135
 F      2.2081754446    -0.5560842499     2.2732504004
 H      3.2054381932     0.6088094123     2.8990679396
 F      3.6525241692     1.3453310169     3.2129772515
 H     -0.0318942119     2.9432178965     3.7755039495
 F     -0.4052078483     2.1241732760     3.9506948122
 H      1.5256513354     4.0402371800     2.7648853800
 F      0.8098149642     4.2899222162     3.2807581088
          12
Energy: -41.896204230495016 Kcal/mole
 H      3.1730282093     2.6725302882     2.3443553631
 F      2.7665716443     3.3583439908     1.8912090003
 H     -0.2134901453     1.2078188962     2.5994778688
 F      0.0250324013     0.7471372269     1.8433241845
 H      1.3981943081    -0.1729009313     2.0783437255
 F      2.2081803313    -0.5562049455     2.2729964287
 H      3.2129264303     0.6071482280     2.8924720732
 F      3.6521269355     1.3454191388     3.2133271470
 H     -0.0215894846     2.9444139285     3.7794066977
 F     -0.4012816141     2.1279129162     3.9527531251
 H      1.5247029982     4.0481459185     2.7598323939
 F      0.8098652713     4.2895026759     3.2810261580
          12
Energy: -41.89712132396173 Kcal/mole
 H      3.1628177461     2.6696699738     2.3490288362
 F      2.7671132858     3.3584957238     1.8909610834
 H     -0.2147125171     1.1894761065     2.6062288808
 F      0.0176192635     0.7334608768     1.8453339773
 H      1.3978921851    -0.1757220424     2.0741157980
 F      2.2081963583    -0.5560552921     2.2732207104
 H      3.2124750449     0.6047796402     2.8986113382
 F      3.6521508805     1.3455447870     3.2130014732
 H     -0.0231001640     2.9444558336     3.7763308140
 F     -0.4012014760     2.1279106933     3.9529162936
 H      1.5250182815     4.0478994922     2.7603793976
 F      0.8098485462     4.2895157483     3.2809971407
          12
Energy: -41.901145769782744 Kcal/mole
 H      3.1659977769     2.6704398717     2.3474242283
 F      2.7669445925     3.3584548825     1.8910462041
 H     -0.2256363909     1.1942436777     2.5999101783
 F      0.0181987498     0.7332079682     1.8456691699
 H      1.3955188415    -0.1778651667     2.0797931260
 F      2.2083222587    -0.5559416043     2.2729195413
 H      3.2073100799     0.6085516095     2.8970198056
 F      3.6524248699     1.3453446927     3.2130859003
 H     -0.0272024043     2.9465062737     3.7770930199
 F     -0.4009838617     2.1278019222     3.9528758603
 H      1.5293145238     4.0493286112     2.7661403338
 F      0.8181680627     4.2916802214     3.2919020744
          12
Energy: -41.89748086380254 Kcal/mole
 H      3.1727588717     2.6822278744     2.3589179815
 F      2.7665859321     3.3578295562     1.8904364871
 H     -0.2153802604     1.1920025839     2.6045040536
 F      0.0176546858     0.7333268530     1.8454254754
 H      1.3941872395    -0.1808491770     2.0795849276
 F      2.2083928971    -0.5557833094     2.2729305858
 H      3.2054779824     0.6095895242     2.8971878550
 F      3.6525220585     1.3452896337     3.2130769857
 H     -0.0280953314     2.9477946009     3.7812538862
 F     -0.4009364940     2.1277335794     3.9526551360
 H      1.5286537774     4.0494090612     2.7657856317
 F      0.8200508784     4.2959396815     3.2930366011
          12
Energy: -41.901321659545744 Kcal/mole
 H      3.1720172673     2.6768356746     2.3516928418
 F      2.7666252725     3.3581156000     1.8908197640
 H     -0.2217926269     1.1972249567     2.5993137144
 F      0.0179948470     0.7330498182     1.8457008109
 H      1.3983277231    -0.1734331756     2.0767481826
 F      2.2081732540    -0.5561767112     2.2730810685
 H      3.2077881581     0.6070517654     2.8998604408
 F      3.6523995090     1.3454242560     3.2129352112
 H     -0.0203302898     2.9433376120     3.7771193273
 F     -0.4013484115     2.1279700123     3.9528744648
 H      1.5304772092     4.0507743905     2.7676063417
 F      0.8199541495     4.2958672539     3.2929400166
          12
Energy: -41.89462709501669 Kcal/mole
 H      3.1653883019     2.6724105833     2.3509091837
 F      2.7669769238     3.3583503408     1.8908613353
 H     -0.2300336908     1.1926306457     2.5994591169
 F      0.0184320164     0.7332935358     1.8456930977
 H      1.3968308042    -0.1763310649     2.0773027921
 F      2.2082526621    -0.5560229848     2.2730516478
 H      3.2040713397     0.6092688071     2.8999415789
 F      3.6525966776     1.3453066470     3.2129309070
 H     -0.0261793425     2.9475726882     3.7780858367
 F     -0.4093284923     2.1322149686     3.9491925815
 H      1.5244796891     4.0317202701     2.7628688725
 F      0.8212569702     4.2878188622     3.2927559536
          12
Energy: -41.8980600775854 Kcal/mole
 H      3.1725192355     2.6703906269     2.3415589209
 F      2.7665986442     3.3584574948     1.8913573451
 H     -0.2219743305     1.1938586384     2.6013185774
 F      0.0180044860     0.7332283936     1.8455944576
 H      1.3973514178    -0.1757731021     2.0762316615
 F      2.2082250447    -0.5560525835     2.2731084688
 H      3.2084385540     0.6089949144     2.8944109621
 F      3.6523650070     1.3453211764     3.2132242934
 H     -0.0266134540     2.9478063019     3.7782277826
 F     -0.4093054637     2.1322025759     3.9491850516
 H      1.5373598232     4.0388833895     2.7758642702
 F      0.8255160611     4.2838723731     3.2994555768
          12
Energy: -41.89668585452614 Kcal/mole
 H      3.1701495012     2.6762625705     2.3524835025
 F      2.7667243531     3.3581460018     1.8907778213
 H     -0.2214565220     1.1998591473     2.5977916267
 F      0.0179770174     0.7329100805     1.8457815542
 H      1.3975389034    -0.1754815437     2.0760230679
 F      2.2082150991    -0.5560680500     2.2731195342
 H      3.2083434725     0.6111503673     2.8896108963
 F      3.6523700508     1.3452068346     3.2134789258
 H     -0.0295663217     2.9470803745     3.7684758321
 F     -0.4091488209     2.1322410847     3.9497023700
 H      1.5370252115     4.0376488551     2.7759886528
 F      0.8255338115     4.2839378623     3.2994489786
          12
Energy: -41.89500114622976 Kcal/mole
 H      3.1551816188     2.6601392087     2.3505691144
 F      2.7473919228     3.3407411744     1.8908109953
 H     -0.2242425953     1.1993235563     2.5972312765
 F      0.0181248122     0.7329384924     1.8458112795
 H      1.3943335181    -0.1827522124     2.0753376253
 F      2.2083851373    -0.5556823578     2.2731558953
 H      3.2039868238     0.6079952255     2.9030769757
 F      3.6526011610     1.3453742076     3.2127645814
 H     -0.0309133882     2.9499782835     3.7790378703
 F     -0.4090773621     2.1320873573     3.9491420783
 H      1.5377536445     4.0444093021     2.7780099522
 F      0.8343412761     4.3015014542     3.3071636778
          12
Energy: -41.89382730057707 Kcal/mole
 H      3.1620354574     2.6654752733     2.3522993925
 F      2.7470283425     3.3404581085     1.8907192080
 H     -0.2352108011     1.1819690846     2.5933739349
 F      0.0083763624     0.7179298090     1.8408967960
 H      1.3946683084    -0.1780935782     2.0733424569
 F      2.2077445883    -0.5580743389     2.2615194603
 H      3.2115093007     0.6074804046     2.8936533475
 F      3.6522021110     1.3454015176     3.2132644831
 H     -0.0268369121     2.9497230526     3.7871274131
 F     -0.4092936098     2.1321008967     3.9487129468
 H      1.5190216068     4.0508911945     2.7802983655
 F      0.8099637966     4.3054839031     3.3030875912
          12
Energy: -41.8979953167663 Kcal/mole
 H      3.1566659928     2.6656003715     2.3572491645
 F      2.7473131802     3.3404514724     1.8904566341