          12
Energy: -41.86753238262321 Kcal/mole
 H      3.3195895661     2.6893385295     2.3401987496
 F      2.9212614846     3.3700055124     1.8723139370
 H     -0.1585144981     1.4538347849     2.2626331257
 F      0.1841878873     0.9989959331     1.5439080782
 H      1.4527151473     0.0042811891     1.9947043244
 F      2.1830106023    -0.4453391836     2.3193565520
 H      3.2691774896     0.6510837541     2.9032535759
 F      3.7878847677     1.3503824807     3.1910261434
 H     -0.0450684972     3.1497004526     3.5388943767
 F     -0.5270987401     2.3722246656     3.6026693377
 H      1.7098680001     4.1131343707     2.7571509539
 F      1.0020142938     4.4018747801     3.2635708454
          12
Energy: -41.84779376670758 Kcal/mole
 H      3.3040612574     2.7176906587     2.3882250886
 F      2.9590993792     3.4465998898     1.9516685224
 H     -0.1886096841     1.4887579917     2.1970250065
 F      0.1722740454     1.0548067803     1.4742952646
 H      1.3546246831     0.0069856276     1.9955354419
 F      2.0575442018    -0.4562671336     2.3591149099
 H      3.1523283692     0.6434539630     2.9301934253
 F      3.6862893847     1.3317924484     3.2164883142
 H     -0.1328152222     3.1618443363     3.4512128381
 F     -0.5980157547     2.3744404463     3.5180901773
 H      1.6411215308     4.1755481103     2.6958676323
 F      0.8779354188     4.4440979911     3.1275120694
          12
Energy: -41.815458759278016 Kcal/mole
 H      3.2804740147     2.7848419112     2.4898957617
 F      3.0115516574     3.5204834895     2.0130297071
 H     -0.1975922622     1.4475329170     2.2213323196
 F      0.1315631753     0.9854428941     1.5009029277
 H      1.4071097847    -0.0088915352     1.9226891673
 F      2.1650255640    -0.4085657894     2.2493589731
 H      3.1050504526     0.6993544050     2.9989193357
 F      3.5063014975     1.4233910068     3.3934539960
 H     -0.0949246794     3.1460409248     3.4774397774
 F     -0.5184446415     2.3397407249     3.5842097609
 H      1.6712534588     4.1904452834     2.7327594631
 F      0.8904881193     4.4333318386     3.1478505446
          12
Energy: -41.855630868881775 Kcal/mole
 H      3.3069304463     2.7754843774     2.5075986119
 F      3.0259180921     3.5063934298     2.0304267205
 H     -0.1118847151     1.4242728775     2.2930854567
 F      0.2084912419     1.0172089530     1.5364169642
 H      1.4897627301    -0.0068406289     1.8744422801
 F      2.2477784198    -0.4396386940     2.1554886266
 H      3.1451271871     0.6701694455     2.9808659111
 F      3.5426071795     1.3896770730     3.3873230792
 H     -0.0287891940     3.0500088351     3.5576845262
 F     -0.4467668443     2.2415161525     3.6695919257
 H      1.6929067010     4.1767334547     2.7786316825
 F      0.9191420043     4.3888177123     3.2227008909
          12
Energy: -41.86565645016407 Kcal/mole
 H      3.3512651250     2.7920995775     2.4859425296
 F      2.9984233620     3.5101441900     2.0378313551
 H     -0.1278048747     1.4384097766     2.3199304241
 F      0.2030223358     1.0234401203     1.5721052165
 H      1.5391716096     0.0636211025     1.8404037458
 F      2.3214982452    -0.3616189190     2.0595497232
 H      3.3153755216     0.7152771981     2.8555874921
 F      3.7461213932     1.4063308408     3.2772412089
 H     -0.0241725139     3.1094047941     3.5851452844
 F     -0.4424314049     2.3002113296     3.6907598527
 H      1.6764496820     4.1874318522     2.8086246500
 F      0.9054160178     4.4420558838     3.2347263883
          12
Energy: -41.83153397042864 Kcal/mole
 H      3.3608348366     2.8158686186     2.5021430350
 F      2.9939209241     3.5300611535     2.0592071436
 H     -0.0925419715     1.4058451564     2.3291077805
 F      0.2358916094     1.0164162682     1.5666344865
 H      1.5860910320     0.0465682195     1.8278051592
 F      2.3702557219    -0.3707098995     2.0555192573
 H      3.3456736205     0.7131908820     2.8293067527
 F      3.8014942410     1.3969551841     3.2362255913
 H     -0.0490809472     3.1049087271     3.5653524520
 F     -0.4340422329     2.2823774831     3.6923806429
 H      1.6402894831     4.2183721718     2.7668023115
 F      0.8503668185     4.4462293782     3.1729947259
          12
Energy: -41.83137583600865 Kcal/mole
 H      3.3370956488     2.7701919979     2.3687889887
 F      2.9135261933     3.4495437906     1.9216211700
 H     -0.1070137272     1.3810376701     2.3289854750
 F      0.2077226563     0.9627688293     1.5760703498
 H      1.5427381924     0.0198902544     1.8517693484
 F      2.3337660330    -0.3798115199     2.0871465927
 H      3.3578111903     0.7105578638     2.8372424563
 F      3.7966627043     1.4189933430     3.2198878802
 H      0.0083654821     3.0669176479     3.6384547061
 F     -0.4138291523     2.2553160904     3.7012528158
 H      1.7014095749     4.1336110387     2.8724862048
 F      0.9887615834     4.3991784545     3.3848296325
          12
Energy: -41.84228964089186 Kcal/mole
 H      3.3538143827     2.8193209567     2.4302150087
 F      2.9779629992     3.5476606158     2.0189412818
 H     -0.0819308252     1.3875858294     2.3272168196
 F      0.1827492710     0.9328866802     1.5761628066
 H      1.5231203620     0.0176400305     1.9376966594
 F      2.3016019058    -0.3683892588     2.2306759653
 H      3.3247965215     0.7403916122     2.8825298505
 F      3.8265122924     1.4368779020     3.2051397285
 H      0.0772057353     3.0945110597     3.6577806346
 F     -0.3440085507     2.2815044475     3.7076582220
 H      1.7622360972     4.2303035578     2.9571259894
 F      1.0229206684     4.4413365081     3.4568927255
          12
Energy: -41.85115435749182 Kcal/mole
 H      3.3694905160     2.8111553795     2.4179307085
 F      2.9724481756     3.5207917283     1.9940644179
 H     -0.0617187203     1.4507968664     2.3136873709
 F      0.3022410855     1.0867526231     1.5548105371
 H      1.5302402257     0.0357016096     1.9421629875
 F      2.2742068991    -0.4036808163     2.2493203947
 H      3.3535370010     0.7054734738     2.8563787359
 F      3.8325886306     1.4130524884     3.1891406241
 H      0.0212744708     3.0594719986     3.6651822727
 F     -0.4260754437     2.2602446177     3.7099332225
 H      1.7419759151     4.1408854996     2.9394537162
 F      1.0297618651     4.3648317953     3.4718898192
          12
Energy: -41.85834787138762 Kcal/mole
 H      3.3788950450     2.8165041126     2.4548077609
 F      2.9928454938     3.5567706731     2.0755187372
 H     -0.0489130921     1.4131398626     2.3646183711
 F      0.3030848769     1.0628504179     1.5937203656
 H      1.5465752895     0.0316644413     1.9697851144
 F      2.2861329317    -0.4157072974     2.2760562708
 H      3.3923567171     0.6896753970     2.8738231552
 F      3.8716342338     1.4089011257     3.1802483716
 H      0.0302425870     2.9873812013     3.7563293222
 F     -0.4190339175     2.1884066807     3.7823934350
 H      1.7254337724     4.1260660967     3.0100919111
 F      1.0062526978     4.3211104050     3.5445311498
          12
Energy: -41.844386976492615 Kcal/mole
 H      3.3450906932     2.8076714604     2.5001180896
 F      2.9587644730     3.5192085384     2.0695881390
 H     -0.0964965986     1.4202628589     2.3019836506
 F      0.2637346624     1.0252060201     1.5569651725
 H      1.5197419281     0.0124632904     1.9572910536
 F      2.2685494597    -0.4221041932     2.2594952609
 H      3.3283443842     0.6953247438     2.9279368921
 F      3.7902500771     1.4083463428     3.2730924082
 H     -0.0342658621     3.0005091950     3.6716085530
 F     -0.5218916320     2.2239546234     3.6801587503
 H      1.6762756169     4.1356970366     2.9691161704
 F      0.9376573513     4.3257664739     3.4782386181
          12
Energy: -41.835019922977125 Kcal/mole
 H      3.2832126879     2.7652815914     2.4302504042
 F      2.8645616682     3.4430448693     1.9760948551
 H     -0.0492600982     1.3687924901     2.3636897134
 F      0.2596474939     1.0080679052     1.5792517787
 H      1.5867458194     0.0483930033     1.8647348231
 F      2.3463938557    -0.3901245763     2.1321786364
 H      3.3353854473     0.6901246186     2.9118908878
 F      3.7564356155     1.4175286932     3.2786183999
 H      0.0807847512     2.9199153548     3.7750384553
 F     -0.3400783627     2.1061069599     3.8134979885
 H      1.6914263678     4.1182756340     2.9516553423
 F      1.0048787961     4.2986797430     3.5321687266
          12
Energy: -41.851893575374646 Kcal/mole
 H      3.3922383728     2.8237040998     2.4349362074
 F      2.9614126832     3.5439881469     2.0655189412
 H     -0.0559410713     1.3335506395     2.3773268478
 F      0.2762888973     0.9660275749     1.6056798787
 H      1.5952739810     0.0108969627     1.9592089107
 F      2.3688700833    -0.4048220455     2.2230569290
 H      3.3962297790     0.7249934566     2.8689098956
 F      3.8857288997     1.4308240471     3.1899749798
 H      0.0226989786     2.9538433589     3.7433869286
 F     -0.3911634018     2.1374029245     3.7984500494
 H      1.6769758757     4.1161196141     2.9878908668
 F      0.9460871649     4.3092901300     3.5069051675
          12
Energy: -41.84519991907081 Kcal/mole
 H      3.3116437954     2.7192583877     2.4349951557
 F      2.8544554334     3.4031597797     2.0298449518
 H     -0.0973886725     1.3476852272     2.3315862825
 F      0.2800635853     0.9546934573     1.5940388184
 H      1.5221666710    -0.0231520302     2.0988318535
 F      2.2621436687    -0.4315981031     2.4544929961
 H      3.4031353941     0.6901090669     2.9308621635
 F      3.9255867957     1.4012487699     3.1802892184
 H     -0.0506253435     2.9395111275     3.7393364491
 F     -0.4995395353     2.1399845409     3.7282781587
 H      1.6496913781     4.0251185036     2.9976757376
 F      0.9543577121     4.2571434735     3.5486426208
          12
Energy: -41.86753521950476 Kcal/mole
 H      3.2314161834     2.7712090803     2.4206079699
 F      2.8189403923     3.4783656045     2.0074707383
 H     -0.1557184245     1.2726387436     2.3543109039
 F      0.1906909090     0.8193858310     1.6363614832
 H      1.5066156561    -0.1046318880     2.0867174976
 F      2.2775897710    -0.4787969864     2.4130430917
 H      3.3252313745     0.7033001762     2.9329012582
 F      3.8065942450     1.4381853592     3.1958129444
 H     -0.0834608854     2.9621599156     3.6669047364
 F     -0.5242883158     2.1584662793     3.6921379625
 H      1.6075028481     4.1013268607     2.9533058888
 F      0.8890738879     4.3078432299     3.4844365868
          12
Energy: -41.85656852702712 Kcal/mole
 H      3.2825138903     2.8027077544     2.3912202362
 F      2.8327936154     3.4853133251     1.9756600008
 H     -0.1028595972     1.2417391145     2.3786301057
 F      0.1924773748     0.7809461938     1.6428754202
 H      1.5723659893    -0.0898194532     2.0271181532
 F      2.3716566846    -0.4497917959     2.2962710779
 H      3.4031011459     0.7291376043     2.8737573374
 F      3.8569986932     1.4600288014     3.1910333601
 H      0.0245606828     2.9226754097     3.7416983836
 F     -0.4006789877     2.1103489853     3.7553366710
 H      1.6443915881     4.0822403169     2.9649288652
 F      0.9422382050     4.2860226981     3.5184109043
          12
Energy: -41.826197153257965 Kcal/mole
 H      3.2505021778     2.7783229557     2.3326733449
 F      2.7866417632     3.4622996946     1.9353091085
 H     -0.1234783113     1.3111886226     2.3777660654
 F      0.2229362376     0.8802619380     1.6462005162
 H      1.5349576600    -0.0579757745     2.1025474547
 F      2.3170584751    -0.4328517705     2.4003314413
 H      3.4064018905     0.7092383949     2.8712333121
 F      3.8749230317     1.4532751931     3.1315911104
 H     -0.0629629435     2.9813973827     3.7010514819
 F     -0.5011525369     2.1760601839     3.7186831678
 H      1.6109571384     4.0931370945     2.9353275514
 F      0.9236281392     4.3070736764     3.5033935562
          12
Energy: -41.87300782075957 Kcal/mole
 H      3.2363331532     2.7775677997     2.3601325608
 F      2.7661720811     3.4418085288     1.9374958136
 H     -0.1242813278     1.2460236277     2.3865069626
 F      0.2553757996     0.7763302563     1.6964797149
 H      1.5820185471    -0.1310343834     2.1435095523
 F      2.3645550487    -0.4956655725     2.4526530782
 H      3.4011259724     0.7190578219     2.9114400025
 F      3.8757418055     1.4663083916     3.1507001057
 H     -0.1115240090     2.9883802020     3.6405818628
 F     -0.5847533353     2.2031615301     3.6599375396
 H      1.5932418348     4.0870160859     2.9147369144
 F      0.9006512769     4.2889026675     3.4808191763
          12
Energy: -41.84840729031873 Kcal/mole
 H      3.2288815828     2.7539788870     2.3940054197
 F      2.7616311002     3.4311715792     1.9890658635
 H     -0.0997507310     1.2762537387     2.3748858300
 F      0.2988424349     0.8279452319     1.6813211460
 H      1.5878069871    -0.1209909300     2.1396884819
 F      2.3521844248    -0.5284929326     2.4406174611
 H      3.4074685353     0.6575688186     2.9212176504
 F      3.8703677034     1.4128003135     3.1583647553
 H     -0.1335564212     2.9800303172     3.6575359355
 F     -0.5479356561     2.1629595362     3.6972119800
 H      1.5234311469     4.1021021607     2.8880130032
 F      0.8108104721     4.3277128110     3.4192009252
          12
Energy: -41.81037643501503 Kcal/mole
 H      3.2829387490     2.7695833563     2.3963907241
 F      2.8295109426     3.4690871820     2.0143087667
 H     -0.1105792913     1.2063927943     2.4819147265
 F      0.2318142111     0.7845489248     1.7431972980
 H      1.5606248531    -0.1366009414     2.1493461667
 F      2.3393703181    -0.5413061021     2.4151623317
 H      3.4291642935     0.6234951398     2.8975165617
 F      3.8911519120     1.3829383204     3.1226887087
 H     -0.0783990951     2.8764827171     3.7505502602
 F     -0.4821510055     2.0574914016     3.8349695706
 H      1.5748409262     4.0673217048     2.9397039793
 F      0.8685870582     4.2444784175     3.4971176256
          12
Energy: -41.846325654262074 Kcal/mole
 H      3.2612420209     2.7232245929     2.3822445736
 F      2.7888172483     3.3960658574     1.9760568497
 H     -0.1659263194     1.1199771996     2.5385114700
 F      0.1117631989     0.6387176111     1.8090138758
 H      1.5504050201    -0.1803381979     2.0558235530
 F      2.3818167444    -0.5073006048     2.2625579937
 H      3.3919738441     0.6715236382     2.8283871568
 F      3.8633866094     1.3947162772     3.1376627809
 H      0.0167744871     2.9076992786     3.8336842793
 F     -0.3990080578     2.0919420357     3.8842213553
 H      1.6230084550     4.0476984746     2.9947005506
 F      0.9546035485     4.2584795970     3.5860508692
          12
Energy: -41.86124856820271 Kcal/mole
 H      3.1876099216     2.6676148293     2.3949584218
 F      2.7145331894     3.3110277013     1.9442841695
 H     -0.1483222252     1.1963945169     2.5098933743
 F      0.1452497559     0.7620539911     1.7575285695
 H      1.4928271070    -0.1568820757     2.0821175631
 F      2.2771644389    -0.5431753587     2.3586703599
 H      3.3046538303     0.6146362733     2.9488465405
 F      3.7570811644     1.3598441448     3.2332120370
 H     -0.0416011495     2.9239876736     3.7960157635
 F     -0.4585847562     2.1094266835     3.8552109087
 H      1.5686872244     4.0156285024     2.9210174005
 F      0.9102800752     4.2537703080     3.5131976994
          12
Energy: -41.873411755857205 Kcal/mole
 H      3.1816833691     2.6862776947     2.4146510321
 F      2.7636454281     3.3632697558     1.9587836949
 H     -0.1714240911     1.1885489533     2.5077550823
 F      0.1039898719     0.7392288666     1.7573234674
 H      1.4851760835    -0.1653852602     2.0236673954
 F      2.2857970744    -0.5401876233     2.2674259186
 H      3.2555789729     0.6306985896     2.9458063682
 F      3.6660155169     1.3731596278     3.2939190657
 H     -0.0117991735     2.9015967203     3.7968353851
 F     -0.4297997717     2.0886855415     3.8699101085
 H      1.6010014944     4.0523333787     2.9448147462
 F      0.9085658779     4.2518231992     3.5119353052
          12
Energy: -41.86650864976028 Kcal/mole
 H      3.1821505478     2.6966354260     2.3948603990
 F      2.7612270266     3.3610488789     1.9234082243
 H     -0.2101362550     1.1040021621     2.5881185546
 F      0.0791709132     0.6093977877     1.8721877792
 H      1.5045643227    -0.2103990457     2.1085269048
 F      2.3315323074    -0.5599383156     2.2951689449
 H      3.3040120223     0.6330990596     2.9311870369
 F      3.7214881323     1.3849226848     3.2495640685
 H     -0.0837696692     2.9097051778     3.7441552048
 F     -0.4625531844     2.0884010661     3.8953888147
 H      1.5064262822     4.0550343454     2.8098476430
 F      0.7762430449     4.2799388788     3.3169367779
          12
Energy: -41.85089638987563 Kcal/mole
 H      3.2017292268     2.7401181982     2.4403522852
 F      2.8036818871     3.4377090730     1.9978432042
 H     -0.1939496876     1.1062213651     2.5800216400
 F      0.0819577464     0.6415995981     1.8391500577
 H      1.4794857900    -0.2214251373     2.1043275804
 F      2.3126235475    -0.5554788291     2.2918871924
 H      3.2810577885     0.6326455063     2.9188799339
 F      3.7149765354     1.3721944461     3.2439505211
 H     -0.0714105018     2.8960135754     3.7168445710
 F     -0.4223902602     2.0719364158     3.9133109659
 H      1.5018114665     4.0653538412     2.8294027511
 F      0.7500312562     4.2737381774     3.3113690195
          12
Energy: -41.85143333288943 Kcal/mole
 H      3.1537510571     2.7167326451     2.4621119934
 F      2.7696642706     3.4109621749     2.0023167124
 H     -0.1462834541     1.1328695857     2.5438497285
 F      0.0847453960     0.6911676130     1.7741653531
 H      1.4939981270    -0.1656116356     1.9909317821
 F      2.3190015881    -0.5163747253     2.1838658226
 H      3.2243298872     0.6538394462     2.9122578832
 F      3.6457162853     1.3700584491     3.3000114693
 H      0.0412733267     2.8555508088     3.7845343837
 F     -0.2812202178     2.0107867937     3.9370488834
 H      1.4898175559     4.0680202836     2.8468728373
 F      0.7538948508     4.2899351515     3.3469333970
          12
Energy: -41.85421511357768 Kcal/mole
 H      3.1397815978     2.6800561278     2.4142536810
 F      2.7108889023     3.3493885789     1.9571605553
 H     -0.1311132042     1.1418447544     2.5430396359
 F      0.0839406493     0.6906915011     1.7742083266
 H      1.4770098485    -0.1898374943     2.0173817570
 F      2.2998073442    -0.5395174131     2.2213847854
 H      3.2193242444     0.6372277031     2.9460224506
 F      3.6320239251     1.3766246847     3.2979600546
 H      0.0124739119     2.8422959974     3.7821534919
 F     -0.3185088381     1.9992830527     3.9259192538
 H      1.4748086867     4.0192005469     2.8215289694
 F      0.7545557313     4.2480976857     3.3408850900
          12
Energy: -41.88656394742716 Kcal/mole
 H      3.1807463697     2.7246020090     2.4243934230
 F      2.7759195997     3.4093801360     1.9682320447
 H     -0.1899774951     1.1299714994     2.5309724376
 F      0.0870632639     0.6913213498     1.7748484636
 H      1.5151284807    -0.1688653746     1.9583955890
 F      2.3467465467    -0.5143603196     2.1314089851
 H      3.2545796168     0.6441570251     2.8976966698
 F      3.6602884171     1.3786613272     3.2675517758
 H     -0.0604887876     2.8693019457     3.7500477135
 F     -0.4321853427     2.0431826422     3.8923767946
 H      1.5035355745     4.0452291656     2.8327568262
 F      0.7684792960     4.2470414344     3.3425146860
          12
Energy: -41.87875069669187 Kcal/mole
 H      3.1693424843     2.7083101147     2.4136667051
 F      2.7792459771     3.3978503302     1.9518788682
 H     -0.2190937262     1.1024857038     2.5444228617
 F      0.0436598186     0.6474012160     1.7929258998
 H      1.4521436626    -0.1968893848     2.0317248282
 F      2.2762648181    -0.5479500052     2.2278619280
 H      3.2473752620     0.6216507635     2.9129377389
 F      3.6407084626     1.3677920565     3.2727309630
 H     -0.0406854051     2.8473617956     3.7736265525
 F     -0.4231186904     2.0265381343     3.9181336436
 H      1.5036179594     4.0104525880     2.8226486002
 F      0.7772855066     4.2223872205     3.3407353493
          12
Energy: -41.84965293890363 Kcal/mole
 H      3.2006137661     2.6899110912     2.3791067345
 F      2.7760874222     3.3750180724     1.9417341156
 H     -0.1944936595     1.1351665980     2.5442494833
 F      0.1116802818     0.7145302520     1.7891259291
 H      1.4550764034    -0.2139478316     2.0808959626
 F      2.2639853465    -0.5825262502     2.3060742724
 H      3.2537487288     0.6153183363     2.8815461142
 F      3.7111861741     1.3477156425     3.1901464536
 H     -0.0469210578     2.8290443666     3.8034583443
 F     -0.4332512648     2.0058016498     3.9213964650
 H      1.5363164913     4.0142563620     2.8972779167
 F      0.8268421950     4.2033949340     3.4466064372
          12
Energy: -41.86488449820763 Kcal/mole
 H      3.1494534772     2.6178529365     2.3386985049
 F      2.7019164868     3.2865492980     1.8988748831
 H     -0.1724401314     1.1387313201     2.4976963128
 F      0.1241634523     0.7137872926     1.7411661497
 H      1.4927631899    -0.2202216218     2.0007890755
 F      2.2979627858    -0.5956820666     2.2278839128
 H      3.2946755502     0.5829342594     2.8717506486
 F      3.7283008384     1.3298013171     3.1800487308
 H     -0.0513951138     2.8303276476     3.8176050399
 F     -0.4663331398     2.0158077006     3.8902183343
 H      1.5339959487     3.9433747255     2.8835706341
 F      0.8556264041     4.1661345838     3.4589677201
          12
Energy: -41.88026124123118 Kcal/mole
 H      3.1661909415     2.6489302015     2.3676905229
 F      2.7049745027     3.3028836458     1.9199034202
 H     -0.2093939441     1.1159851330     2.4520771058
 F      0.1013449903     0.6477277815     1.7274631621
 H      1.4774481955    -0.2240751867     2.1013311566
 F      2.2705643088    -0.5959084603     2.3726167026
 H      3.2684444410     0.5952020300     2.9355596171
 F      3.7230943490     1.3383072950     3.2218759217
 H     -0.1179288065     2.8400762792     3.7305273133
 F     -0.5381043593     2.0285163533     3.8061050314
 H      1.5172262709     3.9681485460     2.8956969107
 F      0.8278251243     4.1884002441     3.4588170121
          12
Energy: -41.86200653286312 Kcal/mole
 H      3.1498412920     2.6500693664     2.4149365913
 F      2.7130856172     3.3131172545     1.9561327350
 H     -0.1442592991     1.1296269160     2.4672152335
 F      0.1390654069     0.6930975669     1.7121932217
 H      1.4751329945    -0.2121950464     2.1049828942
 F      2.2565605320    -0.5911623657     2.3993360401
 H      3.2555185244     0.6025138632     2.9845066902
 F      3.6962316976     1.3518266635     3.2763820510
 H     -0.0746863716     2.8378919363     3.7215034578
 F     -0.4666021567     2.0139055911     3.8128134802
 H      1.4934584184     4.0022383140     2.8632077136
 F      0.8025684461     4.2224541391     3.4245142577
          12
Energy: -41.87737411536989 Kcal/mole
 H      3.1436766419     2.6620730418     2.4201605144
 F      2.7065731059     3.3308322922     1.9700598992
 H     -0.2047532759     1.1224477121     2.4625385092
 F      0.0835750844     0.6739829416     1.7164586835
 H      1.4318329154    -0.2407938610     2.0945640151
 F      2.2249961610    -0.5996349207     2.3826857943
 H      3.2190140480     0.5922664293     2.9817775652
 F      3.6676901377     1.3338857746     3.2810759332
 H     -0.1001206993     2.8392163160     3.7230530382
 F     -0.4855584344     2.0145116609     3.8334567716
 H      1.4536195884     3.9989171246     2.8422671089
 F      0.7237133138     4.2148063173     3.3536551090
          12
Energy: -41.84734085222078 Kcal/mole
 H      3.1445834579     2.6625588793     2.3796344270
 F      2.6935707069     3.3310657884     1.9430854482
 H     -0.2546270081     1.0498965800     2.4768232524
 F      0.0077015209     0.5488072071     1.7550322970
 H      1.4522331026    -0.2419842422     2.0309229408
 F      2.2876467188    -0.5706276822     2.2179164680
 H      3.3097515546     0.6018260789     2.8784417093
 F      3.7370514213     1.3467745760     3.1999313057
 H     -0.0983045296     2.8335645734     3.7361052317
 F     -0.4923592129     2.0084352009     3.8051807358
 H      1.4949217216     3.9879474075     2.8906741729
 F      0.8060008785     4.2042858453     3.4558951495
          12
Energy: -41.849955415307875 Kcal/mole
 H      3.1140404172     2.6252482265     2.3841994893
 F      2.6333308035     3.2628109634     1.9332881633
 H     -0.2138218997     1.0632841972     2.5219740051
 F      0.0429872203     0.5782170094     1.7873666956
 H      1.4866318824    -0.2255481000     2.0347500303
 F      2.3198051484    -0.5600572230     2.2213376920
 H      3.3136580191     0.5988156716     2.8641766233
 F      3.7461360679     1.3319585086     3.2052826447
 H     -0.0472966512     2.8209685947     3.8200788914
 F     -0.4514015072     1.9999832088     3.8798389245
 H      1.5255837993     3.9694295550     2.9718941740
 F      0.8721157227     4.1910345977     3.5758475480
          12
Energy: -41.83664271213664 Kcal/mole
 H      3.1237007840     2.6218204270     2.3692499019
 F      2.6460589022     3.2768983096     1.9407406249
 H     -0.2114729456     1.0728493029     2.5163873513
 F      0.0428626137     0.5777096026     1.7876630546
 H      1.4917203257    -0.2198285007     2.0015078662
 F      2.3248327167    -0.5607132279     2.1764659945
 H      3.3109800460     0.5919312148     2.8829999262
 F      3.7462781282     1.3323237131     3.2042841120
 H     -0.0623099458     2.8302464964     3.7971685533
 F     -0.4500440588     2.0025787363     3.8714473290
 H      1.5031814604     3.9601061940     2.9622036068
 F      0.8341687859     4.1849684112     3.5476504657
          12
Energy: -41.86507887163779 Kcal/mole
 H      3.1528468706     2.6644341052     2.3883631116
 F      2.7163962194     3.3550308717     1.9718586877
 H     -0.2021085766     1.0743966900     2.5150182568
 F      0.0675205745     0.6003852383     1.7777921961
 H      1.4681361145    -0.2447470180     2.0630025398
 F      2.2813448358    -0.6058656327     2.2847544768
 H      3.2602629441     0.5825695152     2.9028139902
 F      3.6941311662     1.3326742694     3.2027976957
 H     -0.0590169387     2.8281392995     3.7912359213
 F     -0.4502187453     2.0026905182     3.8717620414
 H      1.5037206894     3.9810818880     2.9181775601
 F      0.7901209940     4.1875095522     3.4558132118
          12
Energy: -41.87395762451712 Kcal/mole
 H      3.1282151877     2.6529008465     2.3943224675
 F      2.7011039531     3.3267095785     1.9421645461
 H     -0.2210214990     1.0918789944     2.5107102487
 F      0.0754876685     0.6222517045     1.7810380468
 H      1.4664076106    -0.2376033446     2.0730597527
 F      2.2721588534    -0.6058109770     2.3098657370
 H      3.2573283959     0.5827771978     2.9351113590
 F      3.6777634657     1.3381109300     3.2410432223
 H     -0.1018539904     2.8224295999     3.7599662420
 F     -0.4886197747     1.9989775108     3.8749787843
 H      1.4754766799     4.0087256506     2.8620645330
 F      0.7580602944     4.2020565428     3.3994897798
          12
Energy: -41.88506574877863 Kcal/mole
 H      3.1654232033     2.6500746821     2.3511449097
 F      2.7165599291     3.3272851672     1.9259429341
 H     -0.2072275873     1.0794433929     2.5301416106
 F      0.0811474608     0.6217137161     1.7897279596
 H      1.4571878970    -0.2600726482     2.1006313405
 F      2.2688985565    -0.6233702713     2.3243044105
 H      3.2733612078     0.5803973091     2.8789233878
 F      3.7164453638     1.3272333303     3.1735441408
 H     -0.0935934568     2.8155870239     3.7398463571
 F     -0.4921891552     1.9995756928     3.8668738218
 H      1.4852312699     3.9714244179     2.8605344940
 F      0.7803175110     4.1825950138     3.4077022671
          12
Energy: -41.870651699558124 Kcal/mole
 H      3.1344895638     2.6433061130     2.3465220413
 F      2.6999766773     3.3193468055     1.9048699909
 H     -0.2042311825     1.0619001536     2.5268569285
 F      0.0992197599     0.6265499691     1.7790088541
 H      1.4591003954    -0.2635740403     2.1346356372
 F      2.2624584779    -0.6304216504     2.3814708499
 H      3.2735212878     0.5711834845     2.9032480050
 F      3.7164368720     1.3277221024     3.1722537761
 H     -0.1240602034     2.8283590693     3.7311304376
 F     -0.4905729647     1.9988981653     3.8673361812
 H      1.4507648851     3.9736648655     2.7891455085
 F      0.7508280528     4.1934579344     3.3392986124
          12
Energy: -41.87468780421739 Kcal/mole
 H      3.1377475392     2.6542156170     2.3596558168
 F      2.6998038493     3.3187680815     1.9041732744
 H     -0.1841099062     1.0706558726     2.5524306804
 F      0.0959510957     0.6216143543     1.8035538213
 H      1.4734880756    -0.2773056417     2.1243694865
 F      2.2697917078    -0.6314052509     2.4096815825
 H      3.2439543529     0.5843953365     2.9543092791
 F      3.6926936632     1.3398313077     3.2166802470
 H     -0.0817989233     2.8349475351     3.7617767696
 F     -0.4379801009     2.0015814029     3.9015081495
 H      1.4618466597     3.9841555747     2.8194458703
 F      0.7408720862     4.2130992446     3.3377792190
          12
Energy: -41.88058094937648 Kcal/mole
 H      3.1105865381     2.6575637976     2.3888078445
 F      2.7012446776     3.3185904682     1.9026268267