          12
Energy: -39.80910547694859 Kcal/mole
 H     -2.0973104982    -2.8977778770    -1.1886838047
 F     -1.5937982903    -3.3504569496    -0.5702615268
 H     -5.8307406006    -0.7192526052     0.2555059575
 F     -5.9047593196     0.1914271294     0.1775787465
 H     -4.6208204934     0.5963416926    -0.8931851187
 F     -3.7552389214     0.6770910501    -1.1849677149
 H     -3.4736367915    -0.8808388501    -1.6723939522
 F     -3.4307137249    -1.7936163713    -1.7490999309
 H     -4.7265262126    -2.5864112073     0.6959913872
 F     -5.5465599960    -2.3514759253     0.3594813467
 H     -2.6110007911    -3.0724379821     0.7230839773
 F     -3.1769685785    -2.8574509888     1.4118147348
          12
Energy: -39.334326896366434 Kcal/mole
 H     -1.4538622865     2.3513466468     1.8469420330
 F     -1.6755685043     2.8382679805     2.5916855914
 H     -2.2773395536    -2.4044477782     3.4340485070
 F     -1.5240794098    -2.6518932430     2.9733328705
 H     -1.7588320722    -1.7606462980     1.6344386861
 F     -1.8258997120    -1.2164090436     0.8994579091
 H     -1.0298499670     0.2825830218     0.8234120023
 F     -0.7256454689     1.1441698799     0.7458445522
 H     -3.5270632776    -0.6324293414     4.1039630964
 F     -3.5152430743    -1.5234639486     4.3203114532
 H     -2.6640303554     1.6638783534     3.2142038653
 F     -3.1747466305     0.9986881669     3.5851215141
          12
Energy: -38.59045596857564 Kcal/mole
 H     -3.4700583231     1.7613572391     4.0752827357
 F     -2.7856171698     1.1614120296     4.1870640101
 H     -6.5383770177    -0.5503652650     4.3938610929
 F     -7.0744335518     0.0868345673     4.0097923934
 H     -6.3129643557     0.5883720992     2.6042794355
 F     -5.6453307524     0.8296585250     2.0238182116
 H     -5.0539623469     2.1773202704     2.8379076096
 F     -4.6880710301     2.8317456476     3.3658659129
 H     -4.4021869034    -1.9378699164     4.6805532074
 F     -5.3011676845    -1.8217781646     4.8192804951
 H     -2.7202243670    -0.5514364662     4.5481954770
 F     -2.8286834175    -1.4599643761     4.4873458979
          12
Energy: -39.180219805345246 Kcal/mole
 H     -2.5215489179     0.5335088952     5.4597858893
 F     -2.4001445902     0.5887508524     4.5525382299
 H     -6.0108490690     1.3248813451     3.5768296557
 F     -6.5273353180     1.1131155587     4.3043502439
 H     -5.7747544494     1.6690382137     5.7225398563
 F     -5.2965463725     2.0724288593     6.3929740605
 H     -3.9219249558     1.2419083943     7.0217574309
 F     -3.1591402941     0.7329913763     7.0289705197
 H     -4.6412920443     0.3173399323     2.4552696125
 F     -4.9754902200     1.1599714453     2.3168040469
 H     -3.4490018795    -0.5206048764     3.8534125556
 F     -4.1353254368    -1.0455498792     3.5463592722
          12
Energy: -39.175895105756126 Kcal/mole
 H     -2.6596660836     5.1204788890     5.2348198564
 F     -2.4865216868     4.5853779431     4.5105429788
 H     -6.7417567555     3.1287029120     4.2496697265
 F     -6.8834696763     3.5349508227     5.0594654311
 H     -6.2680523632     4.9783707331     5.6123620374
 F     -5.8703738579     5.7086724941     5.9988851860
 H     -4.2965506137     6.0934962494     6.2602111117
 F     -3.4118925427     6.3239164504     6.3321529515
 H     -5.4960432853     3.1041494288     2.6218308208
 F     -6.0879031927     2.4610978546     2.8994556092
 H     -3.6839250157     4.2818242735     3.1234140826
 F     -4.4510674563     4.3855147477     2.6318555800
          12
Energy: -37.36138542692393 Kcal/mole
 H     -4.5233284526     7.2512631390     6.0301019596
 F     -3.6335238179     7.4633069155     6.0947096135
 H     -4.0488053566     2.2850672905     3.9793466126
 F     -4.7836196719     1.9749189323     3.5268591343
 H     -5.7266287457     3.1839941997     4.1625950116
 F     -5.9956926974     3.9328752822     4.6183040351
 H     -5.9129505782     5.5536413334     5.1938684483
 F     -5.9084310930     6.4334376115     5.4523777970
 H     -2.2740591231     3.4203393408     5.1474292496
 F     -2.6081856766     2.5895483950     4.9498568564
 H     -2.7847149839     6.2139633862     5.6086708696
 F     -2.5272791420     5.4153345635     5.2387954975
          12
Energy: -38.457523042379904 Kcal/mole
 H     -2.1013035087     5.5316093545     4.1804121557
 F     -1.3101231380     5.7058827461     4.6100066228
 H     -2.7414335616     1.0645591458     4.3043822077
 F     -3.5020990138     0.7901944010     4.7368183956
 H     -4.2837366028     2.0735994761     4.4385876336
 F     -4.6523237702     2.8253128219     4.0644759581
 H     -3.9597520437     4.2048795149     3.6287001502
 F     -3.5042260131     4.9268419649     3.2938042618
 H     -0.9762867871     2.5151720229     3.3574271387
 F     -1.6319577214     1.9007783449     3.1743833338
 H     -0.3315173325     4.3555719982     4.3903858645
 F      0.1029780162     3.6833439593     3.9429350228
          12
Energy: -38.77794553498637 Kcal/mole
 H     -2.3729702949     1.7287336579     4.7755837244
 F     -2.8755167726     1.5355585261     5.5178905384
 H     -5.3109180281    -0.8119370508     2.4082824572
 F     -5.5766393678    -0.2432810683     1.7397680271
 H     -4.8924000396     1.0889608757     2.3733014222
 F     -4.3277744121     1.7441872948     2.6778752892
 H     -2.6749019510     1.7828123216     2.9131073209
 F     -1.8210137056     1.7574695926     3.2464564031
 H     -4.3785945516    -1.1919581075     4.7352690575
 F     -4.5890918491    -1.4795878682     3.8903732009
 H     -3.1640634035     0.0281037027     6.1422219529
 F     -3.5584606677    -0.7909690898     6.2624698577
          12
Energy: -39.31943043574293 Kcal/mole
 H     -1.0937989069    -2.4544653170     4.6301265458
 F     -0.4884925750    -2.8960345768     4.1014396505
 H     -2.5838218112    -1.5451727462     1.1687661668
 F     -3.4777000268    -1.4808414024     1.3630139823
 H     -3.5065980988    -0.7201362942     2.7578190089
 F     -3.3592964529    -0.4102166473     3.6081960062
 H     -2.7964453909    -1.2843897347     4.8593981596
 F     -2.4122147511    -1.8213206897     5.4957635932
 H     -0.9993113479    -3.1053253510     1.1820959367
 F     -1.0451039753    -2.2352533322     0.8961471348
 H     -0.7712721470    -3.9472189749     2.9670570975
 F     -0.8543574191    -4.4589654264     2.2106832436
          12
Energy: -40.158601998148214 Kcal/mole
 H     -3.0758450819     0.2325860718     4.5688007373
 F     -3.0862774299    -0.5758299681     5.0015173566
 H     -3.0076204984    -0.1297941918     0.5519177530
 F     -2.2766449272     0.3476124314     0.2714776874
 H     -1.1555826609     0.5060844546     1.5282661894
 F     -0.7605156494     0.6965588317     2.3335801456
 H     -1.9343879497     1.4609677336     3.2179658404
 F     -2.6865467088     1.6290724759     3.7148430855
 H     -4.2186092420    -1.5832996042     2.0828510815
 F     -4.3030860317    -1.0076987592     1.3740236418
 H     -3.3809331971    -2.0135296260     3.9626210377
 F     -3.8386925566    -2.5436065792     3.3707056785
          12
Energy: -38.834972518262475 Kcal/mole
 H     -1.2116617272    -1.2175512985     5.7598892174
 F     -1.2725692048    -2.1157825493     5.5856482946
 H     -0.2958081517    -2.0486207685     1.6963005542
 F     -0.8456851971    -1.3769044854     1.9918026185
 H     -0.1523214245     0.0525464802     2.4795425485
 F      0.1396399786     0.7769074329     2.9601138223
 H     -0.7136491137     0.6433552714     4.4433400102
 F     -1.2353142661     0.5768297711     5.1945582386
 H      0.6941235978    -3.5091345847     2.6432050101
 F      0.8494698096    -3.1751707390     1.8034284302
 H     -0.4540893013    -3.2295504459     4.5993658178
 F     -0.0231999487    -3.8640104976     4.0966891736
          12
Energy: -40.30095809667327 Kcal/mole
 H      0.6453836849    -1.8147524617     4.5210054179
 F      0.1764259059    -2.5671145053     4.2866574780
 H      3.2830209909    -3.4057614805     2.2790911500
 F      3.5265086991    -2.6499493946     1.8204509569
 H      2.9630564708    -1.0256430626     2.0467012602
 F      2.6251306179    -0.2446794914     2.3884482697
 H      2.1085602770    -0.4648737084     3.9862367164
 F      1.8360334611    -0.6731678946     4.8366669996
 H      2.3503609583    -4.6341533283     4.2194177552
 F      2.8708486538    -4.5152385469     3.4738704170
 H      0.7560054347    -3.8478311816     5.1177876067
 F      1.1758178438    -4.5822042852     5.4718252966
          12
Energy: -38.86485816502366 Kcal/mole
 H     -0.4546744061    -1.4049167489     5.7972022083
 F     -0.9614109051    -1.8330261195     6.4303131681
 H      0.4799950496    -4.9271002309     3.2967263461
 F      0.5803116252    -4.6212248447     2.4380844924
 H      0.8462521376    -3.0557301001     2.2367649149
 F      1.0152830254    -2.1596900718     2.3338722093
 H      1.0216277513    -1.4124010717     3.9335511377
 F      0.7798022049    -1.0040369995     4.7181836566
 H      0.0634580927    -4.6826012986     5.4792316847
 F     -0.2635230029    -5.2863848028     4.8714341500
 H     -0.0227505347    -3.0773869389     6.6591528640
 F      0.6447251964    -3.7058881422     6.6404075774
          12
Energy: -39.40198432453832 Kcal/mole
 H     -0.6110789721    -0.5586019201     4.6535392054
 F     -0.9859854312    -0.3663293152     5.4680116680
 H      0.5737350721    -4.5814795816     5.8143402798
 F      0.4649656421    -4.8418450595     4.9418335297
 H      1.2563398800    -3.6980655554     4.0727613566
 F      1.7127175261    -3.0022913458     3.6873956946
 H      0.7125928562    -1.7542099796     3.3629479617
 F     -0.0334722322    -1.2358301294     3.2382153885
 H      0.6813912292    -3.1938213062     7.4034264882
 F      0.5771961541    -4.1038707159     7.4463503530
 H      0.2539386039    -1.0952110703     6.7163886702
 F      1.0227145059    -1.5744656276     6.8584720324
          12
Energy: -40.932383122038715 Kcal/mole
 H      2.2692499762    -2.8466209603     2.8060830379
 F      2.1312493557    -2.6177339703     3.6832692066
 H      1.0403565232    -6.3225947543     4.6726576072
 F      1.8653608028    -6.6628028832     4.4616709545
 H      1.8245745323    -6.1970157423     2.8654311051
 F      1.6342441044    -5.8709172589     2.0297738145
 H      2.2852303480    -4.3980466891     1.3691189414
 F      2.3997307127    -3.4947304773     1.2604980958
 H     -0.5113205826    -4.7215758279     4.6894511491
 F     -0.4110566914    -5.5928974891     4.9570977722
 H      0.5101716413    -2.9243237662     4.0184490086
 F     -0.3784059755    -3.1078165573     4.1512993547
          12
Energy: -39.706052278686215 Kcal/mole
 H      0.8530938634    -1.6901794317     2.6409515411
 F      0.4591127216    -1.0250702636     3.1342036617
 H     -0.8550377193    -4.7868587194     4.5638941971
 F     -0.6193666833    -5.5649925896     4.1398000535
 H     -0.3801526401    -5.3464110898     2.5164994322
 F     -0.1806843724    -5.1894734455     1.6353229539
 H      0.8153490031    -3.9125665083     1.7443440340
 F      1.3806754530    -3.2199383857     1.9482098941
 H     -0.4214176851    -2.7443122310     5.5653117826
 F     -0.9911227173    -3.4419955197     5.3933722435
 H      0.6764280145    -1.0618736172     4.7939040878
 F      0.6949098218    -1.2993896064     5.6794172597
          12
Energy: -39.69317978403183 Kcal/mole
 H      0.0748144405    -2.1319105069     2.5426834211
 F     -0.1547846398    -1.2753139452     2.3094119210
 H     -3.2156656861    -3.6452512970     5.8559756782
 F     -2.5632836237    -4.1340126597     6.2759744579
 H     -0.9252808586    -3.7890943415     5.9459352622
 F     -0.0721993385    -3.4957837789     5.7812846205
 H      0.1553746666    -3.7423438180     4.0494244668
 F      0.2688411767    -3.6713016937     3.1422489779
 H     -3.5454961276    -2.2837836160     4.0593074292
 F     -4.1104544439    -2.5344722517     4.7367041437
 H     -1.7424637712    -1.4950770709     2.6361484003
 F     -2.6268155775    -1.7158458841     2.7365078236
          12
Energy: -40.83540719955528 Kcal/mole
 H     -1.0988645746    -2.2699466292     3.7286969673
 F     -1.7184626854    -1.7141802821     3.3438451146
 H     -2.7033573089    -3.9729812194     7.3957655006
 F     -3.0406732177    -4.8103033628     7.2345246687
 H     -2.2962702874    -5.2105393254     5.8556872107
 F     -1.8791755781    -5.2731205609     5.0414362712
 H     -0.7457217967    -4.1390792596     4.5853758445
 F     -0.1787095358    -3.4272581856     4.4726955238
 H     -2.6572919197    -1.9909600245     6.7686487603
 F     -2.1844830219    -2.3963533667     7.4416992668
 H     -2.9198578803    -1.7184443360     4.4719303740
 F     -3.4590349779    -1.6663517573     5.2118380849
          12
Energy: -39.39150424063412 Kcal/mole
 H     -3.2000383657    -2.9994973267     3.1096648857
 F     -2.8928379665    -2.1382353286     3.1785465629
 H     -2.9387419977    -4.1590567863     6.9258968696
 F     -2.9334120117    -5.0731982644     6.9980491343
 H     -2.5492385743    -5.8956412352     5.5608066986
 F     -2.3509947148    -6.2088849437     4.7220774507
 H     -3.3558754167    -5.3536925928     3.5573993823
 F     -3.8074762543    -4.6645870342     3.1548087558
 H     -3.5421898364    -1.7603428142     6.1868902531
 F     -2.9418516777    -2.3642068904     6.5272301899
 H     -3.6013122924    -1.0803827225     4.2328576119
 F     -4.1075635631    -0.7287906473     4.9118139165
          12
Energy: -40.340050418435794 Kcal/mole
 H     -6.0221932213    -6.0954679373     2.9650263600
 F     -6.6224094656    -5.4799466541     2.6460232095
 H     -3.7547967595    -3.8462406546     5.4248111742
 F     -3.3356899495    -4.5415129237     5.8512322733
 H     -4.4057592734    -5.8606587626     6.0878133224
 F     -5.1271654474    -6.4075462352     5.9416072199
 H     -4.9887750115    -7.0450724638     4.3789413781
 F     -4.9555915504    -7.2064099418     3.4768559741
 H     -5.3704202740    -2.8363455537     4.4101156776
 F     -4.5114968713    -2.5307126034     4.5087467474
 H     -6.7934237310    -4.3650955580     3.8039507052
 F     -6.7488895715    -3.7831124871     4.5111998932
          12
Energy: -40.41494792762285 Kcal/mole
 H     -7.0233640984    -4.0539280744     5.7447699971
 F     -7.1361706669    -3.3425438860     5.1772347870
 H     -2.7551495399    -3.7576724010     3.8452679484
 F     -2.6692650108    -4.6628650061     3.9641762967
 H     -3.9356693826    -5.6347638805     4.6630094899
 F     -4.5900806117    -6.1875293375     4.9902483823
 H     -5.7431185478    -5.7000682712     6.1839055971
 F     -6.3442334257    -5.2634095449     6.7213803037
 H     -3.7255968175    -2.0556182801     4.3572834615
 F     -3.1815215680    -2.2601635893     3.6480357337
 H     -5.8191211248    -2.3514552273     5.4103516782
 F     -5.0324606213    -1.8828859343     5.4603223704
          12
Energy: -40.28997905894383 Kcal/mole
 H     -7.0761514996    -4.7457421339     4.8804078445
 F     -7.4025293670    -3.9024794599     4.7278478555
 H     -3.5411150937    -3.6007259448     6.0293416054
 F     -2.8844496203    -3.7862417036     5.4167541755
 H     -3.4213718675    -5.1421618839     4.7667207298
 F     -3.8318046060    -5.9168763206     4.4979243222
 H     -5.5028271268    -6.0224294962     4.8207727210
 F     -6.3810844755    -6.1646130141     5.0428917808
 H     -5.5605147205    -2.8662331629     6.9086508657
 F     -4.9011490012    -3.4481295956     7.1685015723
 H     -7.1124243753    -2.4952440989     5.6400601860
 F     -6.8040454673    -1.9276721392     6.2909469041
          12
Energy: -40.40599079158321 Kcal/mole
 H     -6.3180943961    -5.7388354350     4.9457858133
 F     -7.2198738137    -5.6076022746     5.0480635705
 H     -3.9644526706    -2.4979258803     6.3041474216
 F     -3.2856016503    -2.6537498532     5.7076835235
 H     -3.5411016685    -3.4273062346     4.2251318660
 F     -3.7859339355    -3.9459845452     3.5096467361
 H     -4.1930798958    -5.3901343404     4.3942035282
 F     -4.6322634408    -5.9085216469     5.0100618027
 H     -6.2524732518    -2.5297757153     6.5025995116
 F     -5.5468327574    -2.3480873686     7.0593308985
 H     -7.4174669774    -3.8878604358     5.2432090929
 F     -7.3570093190    -2.9942978635     5.4401349697
          12
Energy: -40.33013178958737 Kcal/mole
 H     -5.9386120842    -3.9350368792     3.0087876953
 F     -6.5545249544    -3.2750761370     3.1700085222
 H     -3.3485765225    -4.4935210378     6.4691519835
 F     -3.0759925988    -5.3651889055     6.5515056902
 H     -3.9739653753    -6.3063256262     5.4649481275
 F     -4.5957591497    -6.6196104962     4.8681951699
 H     -4.4811462617    -5.5862503665     3.6225804296
 F     -4.5005655170    -4.9112367766     3.0022026851
 H     -4.7908078727    -2.8526854676     6.1875245722
 F     -3.9000887454    -3.0106099045     6.3377520948
 H     -6.4444895235    -2.7688220149     4.9164073225
 F     -6.3892177446    -2.5862198596     5.8133412573
          12
Energy: -40.05441369203123 Kcal/mole
 H     -6.7533285665    -5.3490218922     4.8271876353
 F     -7.1866070321    -4.5410836894     4.8073222950
 H     -2.6875427277    -3.8802029705     6.2333626458
 F     -2.3180624341    -4.4930476995     6.8067688289
 H     -3.0490531801    -6.0936580981     6.5974678790
 F     -3.4748458228    -6.8631501996     6.3377150519
 H     -5.0693999798    -6.9334562789     5.5581346006
 F     -5.8434603739    -6.6914086793     5.1301948084
 H     -4.3831601974    -2.9983412389     5.7026018701
 F     -3.5815770305    -2.9129233361     5.2655009567
 H     -6.2595426439    -3.6480886025     5.8760106293
 F     -5.7738346986    -3.2187636260     6.5245912768
          12
Energy: -40.46775593467595 Kcal/mole
 H     -3.7288808778    -5.2862897689     5.2890451132
 F     -3.8325207908    -5.2675673833     6.1999771857
 H     -2.1959438683    -1.5258501946     5.3185822505
 F     -2.1173446241    -1.5567807823     4.4054806913
 H     -1.5261813118    -2.9035001172     3.4147023372
 F     -1.3471592920    -3.7861193143     3.2420076086
 H     -2.6732905162    -4.8535572679     3.4734918719
 F     -3.4359186714    -5.3275318874     3.6595976398
 H     -3.1013290878    -2.0760810519     7.0382615465
 F     -2.3118011369    -1.6209121418     6.9364977118
 H     -4.1922840683    -3.8327416928     7.0051486995
 F     -4.4642291976    -2.9892869206     7.2407731761
          12
Energy: -40.596381294787335 Kcal/mole
 H     -3.9257561401    -4.6583321019     5.1794683414
 F     -4.7121327061    -4.3852435696     5.5640766485
 H     -1.1400694001    -1.1498309302     5.2664284700
 F     -0.9153103818    -0.9137561726     4.4093164047
 H     -1.5358528348    -2.0869663225     3.4714710525
 F     -2.0888444332    -2.6906529619     3.0583709031
 H     -2.2486197196    -4.1363664193     3.9644767364
 F     -2.3431418988    -4.7336078304     4.6538657807
 H     -2.6745468625    -1.9258152070     6.3420809291
 F     -1.7814501954    -1.9136715776     6.5497341869
 H     -4.5132047689    -2.7789503009     5.6142944955
 F     -4.1948596677    -1.9207718618     5.6697486490
          12
Energy: -40.056714033309845 Kcal/mole
 H     -2.6199642314    -5.4814477151     5.0672073023
 F     -3.1892311895    -5.2140481466     5.7345315123
 H     -0.1653041204    -2.6981763177     3.9503948445
 F     -0.0790814761    -2.8029642775     3.0434912448
 H     -1.2281150472    -3.5778590451     1.9987134171
 F     -1.6212106466    -4.3011988904     1.5948021423
 H     -1.6512158220    -5.3822915210     2.9696151320
 F     -1.5252240341    -5.7704847329     3.7907856987
 H     -1.4858934832    -2.4785152161     5.6477423353
 F     -0.5782576126    -2.5785406938     5.5635934782
 H     -3.2311251229    -3.5101377986     5.7882685884
 F     -3.1728087063    -2.5955763337     5.7556262475
          12
Energy: -40.75824981994606 Kcal/mole
 H      0.3974755594    -5.6785496466     4.4600346577
 F     -0.3307498333    -5.6844870215     5.0172971856
 H     -0.1027486336    -1.6503113350     3.9065480290
 F     -0.3374431138    -2.0361977842     3.1084884139
 H      1.0031833302    -2.6711375534     2.3527645784
 F      1.6914051728    -3.2180195775     2.0916903609
 H      1.6811079718    -4.7013778819     2.8889117749
 F      1.6835897665    -5.4816152061     3.3706923875
 H      0.0648733609    -2.2682818936     6.0670499526
 F      0.3223290643    -1.5670807977     5.5351452770
 H     -0.3469384192    -4.4800411127     6.2751094522
 F     -0.2241441731    -3.7329379696     6.7924560157
          12
Energy: -40.847061820089266 Kcal/mole
 H      1.7871774823    -5.5583594853     4.7601010987
 F      1.4092558228    -5.7570277525     5.5716398463
 H      0.4224846805    -2.2077063247     2.8595240836
 F      0.0456974422    -2.2261555106     2.0237130974
 H     -0.0291474363    -3.8492141229     1.8661531896
 F      0.0110075254    -4.7653316447     1.8638585377
 H      1.4683784613    -5.0647728943     2.6390589847
 F      2.2501859298    -5.1198177615     3.1151221578
 H      0.2774887659    -3.0043539551     5.0450071818
 F      0.8659227109    -2.5856822466     4.4798979065
 H      0.1708293041    -4.7152156882     6.0356995315
 F     -0.4946576047    -4.0844583271     6.0484009349
          12
Energy: -41.13679654207314 Kcal/mole
 H      0.3660808347    -5.2607024046     2.5099771692
 F     -0.4323915952    -5.4996467238     2.8923858392
 H      1.1201428497    -1.1706969684     3.4068678552
 F      1.1283714979    -0.7288268079     2.6033928707
 H      1.1300899741    -1.8903708071     1.3707947487
 F      1.1078025656    -2.5937455884     0.7828694231
 H      1.7015489480    -3.9003263335     1.5072215187
 F      1.8961418354    -4.5921993355     2.0767251247
 H      0.3108732430    -2.6068055122     4.8073467402
 F      1.0815577785    -2.1137403613     4.7455316634
 H     -0.8893101437    -4.4236917800     4.0752919363
 F     -1.0445923618    -3.7420007827     4.6686500212
          12
Energy: -41.1635998497469 Kcal/mole
 H      1.0979137495    -6.3789487205     1.6661679534
 F      1.1596754743    -6.5844320140     2.5577121785
 H      0.2341317088    -2.3578126649     1.7004799961
 F     -0.6715680511    -2.2385283249     1.6206790490
 H     -1.1961928101    -3.7056872828     1.1301667194
 F     -1.3854378923    -4.5561550240     0.8441948324
 H     -0.0550817912    -5.3948308875     0.3068370839
 F      0.7279385502    -5.8443546336     0.1465356596
 H      2.0593385519    -3.2753462138     2.4769497861
 F      1.7932188668    -2.7171296486     1.7998503994
 H      1.9469731031    -5.2761407342     3.3539891869
 F      2.2559725488    -4.4809222178     3.6901972382
          12
Energy: -40.83458192945568 Kcal/mole
 H      1.5084571403    -6.9968385751     1.8911135667
 F      1.8218591795    -7.1995563499     2.7287135104
 H      1.6035714945    -2.9195938349     2.1082631756
 F      1.3429401560    -2.7658931944     1.2426209755
 H      2.3106741359    -3.7783955217     0.3406090165
 F      2.6862341349    -4.4808185416    -0.1137538213
 H      1.6089849033    -5.7079844348     0.1147597584
 F      1.0112511920    -6.3473703039     0.3882357551
 H      2.0836251796    -3.7698349763     4.0929654644
 F      2.3508437373    -3.0592203277     3.5786600458
 H      1.6456655513    -5.9799528102     3.9810689175
 F      1.5173793966    -5.2665199776     4.5427140509
          12
Energy: -40.611765526746694 Kcal/mole
 H      1.0927141172    -5.7622273405     1.3052409088
 F      0.3978371279    -5.9392178025     1.8768258510
 H      2.2373054781    -1.7871224393     3.0315303995
 F      2.5059761427    -1.5877756191     2.1777353894
 H      1.4450160874    -2.1892316989     1.0080953319
 F      1.0185732825    -2.6306234025     0.3267665580
 H      1.7842210477    -4.1156370474     0.2339079139
 F      2.1894789191    -4.9358869761     0.2959168829
 H      1.4705594193    -3.5171893037     4.5395085428
 F      1.6366796970    -2.6191682334     4.4567365024
 H      0.8331332511    -5.4559198129     3.5064093644
 F      1.1180596436    -5.2220376982     4.3460551869
          12
Energy: -40.93374537029763 Kcal/mole
 H      0.5442581444    -4.5968420264     1.5931447281
 F      0.0163506324    -5.0777399936     2.1684184055
 H      0.5781297774    -1.1008436625     3.6252695542
 F      0.1304132359    -0.6282151712     2.9794667919
 H      0.3889914583    -0.9401982528     1.3140992648
 F      0.6022395345    -1.2497652501     0.4776887602
 H      1.4189556357    -2.7236502752     0.7352483557
 F      1.7032890884    -3.5552832360     0.9968398428
 H      0.6909719564    -2.9161470550     4.6027049745
 F      1.3073037117    -2.2387308917     4.5565367050
 H     -0.2362101791    -4.5948935635     3.8048239853
 F     -0.3120751494    -4.1742095127     4.6160936295
          12
Energy: -40.80167323559752 Kcal/mole
 H      2.1983995582    -2.3821452023     3.4414451124
 F      2.0725598593    -3.2333640175     3.7584307568
 H     -1.7990461753    -1.7686305408     3.5336978987
 F     -1.9181075359    -1.7222771563     2.6256424180
 H     -0.6886054350    -0.9491814738     1.8924607925
 F      0.0645133275    -0.5459945933     1.5590819255
 H      1.5774821972    -0.6190078242     2.4627388970
 F      2.3268968691    -0.7620668145     2.9714635522
 H     -1.0523400310    -2.9950723512     4.9251415736
 F     -1.4441149029    -2.1829884868     5.0922380934
 H      0.6239929841    -3.9950293619     4.1608586317
 F     -0.1869460387    -4.3203155379     4.4391674620
          12
Energy: -40.422738627364225 Kcal/mole
 H      2.5312782630    -2.9742293262     3.8443209094
 F      2.4574207951    -3.7348180765     4.3512122463
 H     -1.4331209078    -3.2476248556     2.9872808125
 F     -1.3340987542    -2.9718098098     2.1183678861
 H      0.0484946282    -2.2861616519     1.5514687762
 F      0.8653235907    -1.9827978643     1.2657243826
 H      2.1155788306    -1.5815398485     2.3484374299
 F      2.7690792332    -1.5052796332     2.9871945068
 H     -0.8908017532    -3.5339161684     5.0463902445
 F     -1.6195571826    -3.7087159518     4.5179495573
 H      1.2595943717    -3.2811939899     5.3479407382
 F      0.4937048044    -3.0767190706     5.8089094770
          12
Energy: -40.27027067402682 Kcal/mole
 H      2.5090761934    -2.8216823091     4.8879404292
 F      2.5072216401    -3.0627107086     5.7726951247
 H     -1.5123930165    -1.7995443383     3.6241237690
 F     -1.1962041087    -1.2199872145     2.9877063628
 H     -0.2229215077    -2.3408300441     2.0859077376
 F      0.2912491582    -3.0943699447     1.9926599787
 H      1.6591908928    -2.6342782468     2.8031249095
 F      2.3098192429    -2.3051202734     3.3592065390
 H     -1.1963780902    -3.2339509968     5.4389201250
 F     -1.7665785902    -3.1129721998     4.7310186343
 H      0.9320406804    -3.2640273449     6.4488001033
 F      0.0470969671    -3.2134362876     6.6837557784
          12
Energy: -41.69266385310854 Kcal/mole
 H      0.9699376578    -2.3910231618     5.5464968177
 F      1.0088443039    -3.2760865111     5.7832205824
 H     -2.4263103688    -2.8776321431     3.3215520997
 F     -2.5084358633    -1.9728693701     3.1968575620
 H     -1.0957406801    -1.2093250974     2.7907635418
 F     -0.2820345059    -0.8029722360     2.6739362591
 H      0.4484746372    -0.7603997889     4.1399791014
 F      0.7373091013    -0.8390705610     5.0067400615
 H     -1.8538648947    -4.3743367109     4.5995236185
 F     -1.9688902154    -4.4670454473     3.6945024775
 H     -0.5186581168    -3.7803901515     6.1178535326
 F     -1.4041134590    -4.0162192457     6.1531022948
          12
Energy: -41.06082077047495 Kcal/mole
 H      0.3323979150    -2.6513211632     5.4582518533
 F      0.4155750378    -3.5614088912     5.3826813989
 H     -3.8563509819    -2.6133448194     4.2834025810
 F     -3.8906264688    -1.7446774462     3.9916300914
 H     -2.4483528596    -0.9979962750     3.7722897327
 F     -1.5977742718    -0.6653023075     3.6903154075
 H     -0.7384200781    -0.9012640122     5.0796237808
 F     -0.2705393253    -1.1160057156     5.8384798950
 H     -3.0169854277    -4.3195077397     5.4538314028
 F     -3.6551538073    -4.2295079431     4.8015046780
 H     -0.8923298336    -4.2690761450     6.2505135694
 F     -1.7439997854    -4.3839175838     6.5704490895
          12
Energy: -40.43558750659764 Kcal/mole
 H      0.1258747375    -2.9261452735     5.4806808590
 F     -0.0855734579    -3.7888420221     5.7085689468
 H     -3.6183763583    -2.1759103777     4.5953135943
 F     -3.7711064968    -1.2886370852     4.7694072736
 H     -2.3407210427    -0.5161070228     4.1639126520
 F     -1.5322047132    -0.3574743857     3.7613880797
 H     -0.2521884734    -0.8916050388     4.5950605568
 F      0.4232215060    -1.2982619363     5.0633986051
 H     -3.1390493126    -4.1604718022     5.1478698758
 F     -3.3251281018    -3.7795163063     4.3347668108
 H     -1.5499259706    -4.6490272840     6.1895000496
 F     -2.4029343815    -4.8788845936     6.4353277701
          12
Energy: -41.54021143752553 Kcal/mole
 H      0.6709070156    -3.1157405119     4.5687172734
 F      0.3994491395    -3.9564838356     4.8143802239
 H     -3.5714669249    -1.9014987473     5.0820444610
 F     -3.4110851689    -1.0229378231     4.8739642005
 H     -2.2051783545    -0.7947557828     3.7876381947
 F     -1.4751546108    -0.7556075290     3.2340844503
 H      0.1232019127    -1.0977754171     3.7689357350
 F      0.8806127855    -1.5081904904     4.0832241972
 H     -2.9143774668    -3.6968769969     5.9102555178
 F     -3.6936397076    -3.5253676831     5.4583441158
 H     -0.7893635316    -3.9302320027     5.9842043206
 F     -1.4424990938    -3.8136792369     6.6172275351
          12
Energy: -41.39156955332615 Kcal/mole
 H      0.5260735736    -2.1768925594     6.2328120991
 F      0.5370772044    -3.0303306034     6.5680902301