          12
Energy: -41.89367323752583 Kcal/mole
 H      5.4195562081     0.1537475391     1.4257709179
 F      5.1437653136     0.5526996131     0.6475256961
 H      1.9687783531    -1.2492559685     3.5901487608
 F      2.0811689482    -2.1374207177     3.7886953102
 H      3.4811577453    -2.6679413417     3.0847166018
 F      4.2778068401    -2.8237616882     2.6581497966
 H      5.2384712469    -1.4915147028     2.8102976232
 F      5.6517075282    -0.6737454926     2.8474230142
 H      2.1305250265     0.3211737603     2.1366694324
 F      1.9791214870     0.3234083231     3.0410813822
 H      3.5129056828     0.3180744434     0.5048560319
 F      2.6170266038     0.1317098753     0.5645043645
