          12
Energy: -0.21492904202548146 Kcal/mole
 H      2.2251859983     4.5241678934    -3.9191167023
 F      3.1336757408     4.6488089286    -3.9191167023
 H     -1.2693390803    -4.5968705226    -0.8593972748
 F     -0.3523390803    -4.5968705226    -0.8593972748
 H     -2.8996675462     1.9706884965     3.3377141144
 F     -1.9884422361     1.9706884965     3.2349647390
 H     -0.3442830516     3.3203170181    -2.2139724900
 F      0.5727169484     3.3203170181    -2.2139724900
 H     -0.4671708013     0.0617041642    -4.6745091896
 F      0.4498291987     0.0617041642    -4.6745091896
 H      5.3384856055    -4.0874142049    -3.1760387195
 F      5.5325582593    -4.0874142049    -2.2798106207
