          12
Energy: -41.878465366864845 Kcal/mole
 H     -5.1518850806    -0.2781569257    -3.1428182142
 F     -5.7361543303    -0.6730192138    -2.5566422872
 H     -3.6940333696     3.4426279015    -1.2997082368
 F     -3.8438855829     4.1447147759    -1.8702407381
 H     -4.5704078677     3.5293952710    -3.2337548861
 F     -4.9671323375     3.0704216478    -3.9213898970
 H     -4.3906154451     1.5157791042    -4.0910472736
 F     -4.1027484950     0.6462276660    -4.0474363186
 H     -4.3730282539     1.5697036525    -0.3679278754
 F     -3.5717454845     2.0063795121    -0.4582003358
 H     -5.8591675347     0.2246949140    -1.1616522924
 F     -5.8406000163     0.8004857207    -0.4482034896
