          12
Energy: -41.90349736123329 Kcal/mole
 H      3.1346134191     2.6710617928     2.3576759564
 F      2.7208112289     3.3364127265     1.8812676417
 H     -0.2152492045     1.2018240242     2.6026184305
 F      0.0214346063     0.7415240783     1.8456549350
 H      1.3986697942    -0.1662149862     2.0902314251
 F      2.2080457760    -0.5433485833     2.2989651550
 H      3.1964281077     0.6258909324     2.9351423285
 F      3.6316383968     1.3686388301     3.2510640986
 H     -0.0235257836     2.9538634975     3.7846556893
 F     -0.3865414036     2.1304519418     3.9610134781
 H      1.5043929125     4.0542555926     2.7651893322
 F      0.8005215860     4.3083075135     3.2952004427
