          12
Energy: -41.90570451949225 Kcal/mole
 H      3.1603735147     2.6764649569     2.3517399296
 F      2.7644256400     3.3634199739     1.8910805270
 H     -0.2278655165     1.1815999854     2.5917729679
 F     -0.0028044071     0.7039196775     1.8420676788
 H      1.3791286501    -0.1968934781     2.0844199585
 F      2.1920489023    -0.5691840948     2.2880111182
 H      3.1857738546     0.6047491932     2.9116295278
 F      3.6270359353     1.3448501569     3.2253608455
 H     -0.0099218988     2.9535853234     3.7717676534
 F     -0.3808270520     2.1324369271     3.9421603721
 H      1.5366501740     4.0650605041     2.7776449370
 F      0.8261828637     4.3105361374     3.3028752812
