          2
Energy: -0.43299999987494214 Kcal/mole
 Xe     0.6938146878    -0.5257377303     1.0094991101
 Xe    -1.5728262102     0.1779933999    -2.7155463453
