          2
Energy: -0.4329999997772778 Kcal/mole
 Xe     6.5483641453     3.4910990319    -3.7943325006
 Xe     7.3024214151     6.7548877928    -6.6732362346
