          2
Energy: -0.43299999987354365 Kcal/mole
 Xe     5.6509608134    -1.8220065971    -0.8531355129
 Xe     5.0283570927     2.2552269479     0.7272039682
