          2
Energy: -0.006028495756161135 Kcal/mole
 Xe     3.5063578950     0.4050107273    -3.8778477117
 Xe    -4.4037968635     0.2996105875     2.4048396135
