          2
Energy: -0.008391165293265881 Kcal/mole
 Xe    -7.2808715760    -6.1818618828    -1.8247873681
 Xe    -2.7396325164    -0.4499849042     4.3301433045
          2
Energy: -0.03636890330735121 Kcal/mole
 Xe    -3.0077440410    -4.1146139027     5.6978276665
 Xe    -4.1923964311    -0.7186828151    -0.8432438789
          2
Energy: -0.36675674448122136 Kcal/mole
 Xe     0.1245645473    -1.2090789957     6.0033130970
 Xe    -0.7762293886    -4.0647696054     2.2548259503
          2
Energy: -0.3594204722870548 Kcal/mole
 Xe    -0.1646400296     5.2365548039    -2.9868017288
 Xe     2.9417613732     1.9718138850    -1.2601397449
          2
Energy: -0.05451801584538535 Kcal/mole
 Xe     2.6796648178    -2.1045623833     2.6659736373
 Xe    -0.3122086889     1.5610651090    -2.4443172789
          2
Energy: -0.42939115456666743 Kcal/mole
 Xe    -5.3949056439     2.3875413183    -5.2787314667
 Xe    -1.2056198146     2.6124573238    -6.8727162477
          2
Energy: -0.4247107070423383 Kcal/mole
 Xe    -4.1390021039     6.3673916972    -1.9712251753
 Xe    -4.3537878809     5.1653675980     2.3889080945
          2
Energy: -0.40755789727532626 Kcal/mole
 Xe    -4.7591869477     1.5926372477    -4.6621570301
 Xe    -2.8008965916    -2.4912587700    -3.7202582960
          2
Energy: -0.422666999651046 Kcal/mole
 Xe     0.7073372562    -0.4996036131     1.1418151786
 Xe    -1.0568132376    -0.2129534187    -3.0339258209
          2
Energy: -0.43299999987494214 Kcal/mole
 Xe     0.6938146878    -0.5257377303     1.0094991101
 Xe    -1.5728262102     0.1779933999    -2.7155463453
