          2
Energy: -0.4329999998299856 Kcal/mole
 Xe    -1.8513824999     4.0977043900     2.8098821733
 Xe    -3.4764784034     5.9233113429    -0.8691186063
