          22
Energy: -87.17544754237271 Kcal/mole
 H      3.2626378249     2.6091936115     0.0859362211
 F      3.0757954106     1.7493483312     0.3440931619
 H      0.3379782241     5.0137536093    -4.6265100134
 F      0.1829096825     5.9175407633    -4.6299052450
 H      1.4709882912     1.7738916103    -1.8628405819
 F      1.6659725598     2.6289881914    -2.1305717380
 H      2.8591479176     5.9447408027    -2.7859466905
 F      3.3130583698     5.1602864830    -2.6463554240
 H      0.8443030342     0.0157290510    -0.6003308023
 F      1.0089351659     0.2373209337    -1.4747919499
 H      3.0869179695    -0.7846504889     2.4924201810
 F      2.4175192176    -1.4072080581     2.4201956418
 H      1.1611018235    -0.8156533415     1.5262934619
 F      0.5610038344    -0.3758299025     0.9902647818
 H      3.5572741689     4.4910038702    -1.1364254289
 F      3.6899767229     4.1595694384    -0.2917774255
 H      1.1104327600     3.1161471643    -3.6161614197
 F      0.7654911989     3.4235636382    -4.4082469144
 H      1.2009462892     6.8414033368    -3.7063324931
 F      1.8477928824     7.1756910114    -3.1489006718
 H      3.8097079741     1.0343154513     1.6548360468
 F      4.0942308256     0.5197401119     2.3585035585
          22
Energy: -87.17790132560965 Kcal/mole
 H      3.2620417406     2.6084090222     0.0829121959
 F      3.0758270315     1.7493899518     0.3442535795
 H      0.3418761191     5.0144709554    -4.6209001678
 F      0.1827029082     5.9175027098    -4.6302028344
 H      1.4705372392     1.7741610932    -1.8623094818
 F      1.6659964871     2.6289738959    -2.1305999116
 H      2.8639328900     5.9471740592    -2.7877115413
 F      3.3128045380     5.1601574044    -2.6462618027
 H      0.8338067879     0.0125459851    -0.6031908611
 F      1.0094919675     0.2374897880    -1.4746402304
 H      3.0821972630    -0.7799160014     2.4949890252
 F      2.4177696402    -1.4074592117     2.4200593706
 H      1.1685237573    -0.8142242489     1.5190493562
 F      0.5606101180    -0.3759057126     0.9906490648
 H      3.5549569016     4.4918550792    -1.1357232480
 F      3.6900996486     4.1595242838    -0.2918146745
 H      1.1114984198     3.1192896973    -3.6154135409
 F      0.7654346681     3.4233969341    -4.4082865876
 H      1.2038981447     6.8318090457    -3.7039034665
 F      1.8476362933     7.1761999664    -3.1490295260
 H      3.8137710749     1.0343693071     1.6532467898
 F      4.0940152875     0.5197372550     2.3585878649
          22
Energy: -87.17563339604521 Kcal/mole
 H      3.2674395181     2.6070687460     0.0824156773
 F      3.0755406918     1.7494610504     0.3442799186
 H      0.3331355667     5.0170673689    -4.6133213274
 F      0.1763726400     5.9205287695    -4.6217996762
 H      1.4713345449     1.7737659747    -1.8629899842
 F      1.6659541919     2.6289948561    -2.1305638125
 H      2.8602592959     5.9446075718    -2.7902351872
 F      3.3129994137     5.1602935506    -2.6461279292
 H      0.8378160008     0.0145783213    -0.6018712597
 F      1.0092792880     0.2373819773    -1.4747102322
 H      3.0843362607    -0.7821654464     2.4947931265
 F      2.4176561713    -1.4073398838     2.4200697626
 H      1.1657425535    -0.8083873901     1.5269864350
 F      0.5607576544    -0.3762153445     0.9902280211
 H      3.5484619078     4.4925534407    -1.1343803822
 F      3.6904441930     4.1594872373    -0.2918859105
 H      1.1093601500     3.1141004761    -3.6097155970
 F      0.7591303879     3.4237365368    -4.3986095212
 H      1.2013510555     6.8345040329    -3.7026064960
 F      1.8477714105     7.1760570036    -3.1490983273
 H      3.8118828719     1.0387951512     1.6572554760
 F      4.0941154523     0.5195024742     2.3583752134
          22
Energy: -87.1743543714444 Kcal/mole
 H      3.2587959321     2.6108180261     0.0886162159
 F      3.0759992141     1.7492621597     0.3439509944
 H      0.3365576064     5.0177142012    -4.6093833240
 F      0.1761911087     5.9204944565    -4.6220085781
 H      1.4714140429     1.7738401020    -1.8626954273
 F      1.6659499747     2.6289909238    -2.1305794381
 H      2.8623668645     5.9464302529    -2.7868666125
 F      3.3128876121     5.1601968616    -2.6463066243
 H      0.8392783325     0.0188884318    -0.6004974168
 F      1.0092017147     0.2371533359    -1.4747831114
 H      3.0854316409    -0.7837257351     2.4979773037
 F      2.4175980639    -1.4072571141     2.4199008493
 H      1.1678355227    -0.8160929196     1.5182865251
 F      0.5606466273    -0.3758065839     0.9906895312
 H      3.5532384270     4.4876887610    -1.1370749348
 F      3.6901908097     4.1597452973    -0.2917429707
 H      1.1067920025     3.1169969035    -3.6074520575
 F      0.7592666222     3.4235828881    -4.3987295967
 H      1.2058973921     6.8423814445    -3.6973944954
 F      1.8541428636     7.1833481419    -3.1456622053
 H      3.8155982033     1.0311230998     1.6501697634
 F      4.0939183626     0.5199094588     2.3587510941
          22
Energy: -87.1762739761993 Kcal/mole
 H      3.2655673859     2.6076650220     0.0830050147
 F      3.0756400041     1.7494294193     0.3442486556
 H      0.3315423539     5.0168390022    -4.6093422636
 F      0.1764571562     5.9205408838    -4.6220107563
 H      1.4705464236     1.7740986859    -1.8625017099
 F      1.6659959999     2.6289772065    -2.1305897143
 H      2.8640631467     5.9467799098    -2.7902924773
 F      3.3127976282     5.1601783131    -2.6461248901
 H      0.8422741894     0.0179402611    -0.6001578778
 F      1.0090427914     0.2372036341    -1.4748011232
 H      3.0856593874    -0.7828733695     2.4886273267
 F      2.4175859825    -1.4073023301     2.4203968440
 H      1.1663694166    -0.8114333187     1.5238080616
 F      0.5607244008    -0.3760537650     0.9903966265
 H      3.5652176733     4.4992661355    -1.1313502985
 F      3.6925678130     4.1660791928    -0.2865678394
 H      1.1064399706     3.1194362740    -3.6063571354
 F      0.7592852967     3.4234534851    -4.3987876798
 H      1.2071541232     6.8443150682    -3.7049173369
 F      1.8552915179     7.1852351786    -3.1530293084
 H      3.8129746234     1.0315958869     1.6515480561
 F      4.0940575374     0.5198843786     2.3586779788
          22
Energy: -87.17532594039791 Kcal/mole
 H      3.2594026025     2.6094819760     0.0845804359
 F      3.0759670316     1.7493330341     0.3441650832
 H      0.3343033561     5.0160288656    -4.6185186813
 F      0.1801645726     5.9199511102    -4.6259221370
 H      1.4694552362     1.7739629988    -1.8637352822
 F      1.6660538849     2.6289844044    -2.1305242762
 H      2.8646470076     5.9476807392    -2.7871545559
 F      3.3127666557     5.1601305262    -2.6462913495
 H      0.8381871545     0.0179685827    -0.6009404793
 F      1.0092595991     0.2372021317    -1.4747596080
 H      3.0839604629    -0.7827887833     2.5028949022
 F      2.4176761065    -1.4073068172     2.4196399821
 H      1.1650014887    -0.8141223529     1.5231569928
 F      0.5607969662    -0.3759111179     0.9904311642
 H      3.5643005416     4.4939289620    -1.1332964142
 F      3.6926164647     4.1663623176    -0.2864646025
 H      1.1115643196     3.1178437257    -3.6092376831
 F      0.7590134618     3.4235379661    -4.3986348734
 H      1.2075165813     6.8439373057    -3.7051093543
 F      1.8552722903     7.1852552180    -3.1530191223
 H      3.8152481307     1.0349041716     1.6530520491
 F      4.0939369331     0.5197088817     2.3585981955
          22
Energy: -87.1762235902476 Kcal/mole
 H      3.2665128357     2.6083941359     0.0861099511
 F      3.0755898502     1.7493907415     0.3440839459
 H      0.3341007445     5.0161708104    -4.6067777206
 F      0.1801753207     5.9199435804    -4.6265449679
 H      1.4741860075     1.7738918074    -1.8605416107
 F      1.6658029284     2.6289881809    -2.1306936931
 H      2.8663208891     5.9488496704    -2.7859229624
 F      3.3126778602     5.1600685170    -2.6463566827
 H      0.8437570189     0.0102312620    -0.6018465223
 F      1.0089641307     0.2376125787    -1.4747115445
 H      3.0828332648    -0.7804093639     2.4934603600
 F      2.4177359017    -1.4074330399     2.4201404628
 H      1.1681413534    -0.8104128053     1.5226236209
 F      0.5606304036    -0.3761079009     0.9904594583
 H      3.5586263615     4.4966497597    -1.1313572333
 F      3.6929174669     4.1662179855    -0.2865674716
 H      1.1010723661     3.1195846189    -3.6094769759
 F      0.7531585156     3.4251944369    -4.4009613989
 H      1.2144751933     6.8453088310    -3.7139983327
 F      1.8549031520     7.1851824617    -3.1525475826
 H      3.8159853624     1.0340588597     1.6521451439
 F      4.0938978247     0.5197537235     2.3586463047
          22
Energy: -87.17788129717137 Kcal/mole
 H      3.2658780501     2.6076377552     0.0831415283
 F      3.0756235241     1.7494308658     0.3442414139
 H      0.3338091061     5.0159647035    -4.6163994127
 F      0.1801907914     5.9199545139    -4.6260345593
 H      1.4688955236     1.7733238427    -1.8662096517
 F      1.6660835763     2.6290183101    -2.1303930166
 H      2.8665356146     5.9491450270    -2.7849362606
 F      3.3126664695     5.1600528491    -2.6464090250
 H      0.8455044417     0.0171769427    -0.5997400570
 F      1.0088714340     0.2372441264    -1.4748232876
 H      3.0838898833    -0.7813775026     2.4921275025
 F      2.4176798506    -1.4073816824     2.4202111678
 H      1.1639204259    -0.8138918430     1.5245695415
 F      0.5608543141    -0.3759233459     0.9903562317
 H      3.5554684526     4.4962667265    -1.1309986727
 F      3.6930849866     4.1662383046    -0.2865864924
 H      1.1083322963     3.1216915802    -3.6118965983
 F      0.7527733931     3.4250826675    -4.4008330435
 H      1.2048252004     6.8438843104    -3.7019021304
 F      1.8554150619     7.1852580293    -3.1531892581
 H      3.8127555094     1.0326441735     1.6523951298
 F      4.0940691609     0.5198287694     2.3586330435
          22
Energy: -87.17782132927204 Kcal/mole
 H      3.2647040686     2.6080964963     0.0837979930
 F      3.0756858011     1.7494065306     0.3442065900
 H      0.3363475568     5.0163973633    -4.6166438502
 F      0.1800561325     5.9199315623    -4.6260215925
 H      1.4720001317     1.7738602721    -1.8622065704
 F      1.6659188840     2.6289898538    -2.1306053708
 H      2.8656962435     5.9480871274    -2.7882114493
 F      3.3127109962     5.1601089682    -2.6462352838
 H      0.8443714047     0.0153573454    -0.6004122120
 F      1.0089315390     0.2373406518    -1.4747876313
 H      3.0847992229    -0.7824783020     2.4932613690
 F      2.4176316122    -1.4073232876     2.4201510188
 H      1.1638256051    -0.8158615890     1.5230556185
 F      0.5608593441    -0.3758188555     0.9904365419
 H      3.5527692555     4.4998992178    -1.1319193815
 F      3.6965778198     4.1639000385    -0.2909005659
 H      1.1089171029     3.1240606502    -3.6112533672
 F      0.7527423704     3.4249569938    -4.4008671654
 H      1.2084841809     6.8447947962    -3.7067705175
 F      1.8552209614     7.1852097301    -3.1529310015
 H      3.8167860529     1.0335114683     1.6514327805
 F      4.0938553499     0.5197827614     2.3586840939
          22
Energy: -87.17736157503593 Kcal/mole
 H      3.2648056546     2.6084796018     0.0851389623
 F      3.0756804122     1.7493862077     0.3441354546
 H      0.3341926058     5.0160743673    -4.6129019852
 F      0.1801704476     5.9199486965    -4.6262200898
 H      1.4710606305     1.7729252499    -1.8658945093
 F      1.6659687224     2.6290394546    -2.1304097342
 H      2.8678875067     5.9498422787    -2.7853089924
 F      3.3125947547     5.1600158615    -2.6463892524
 H      0.8356521987     0.0154276167    -0.6020828165
 F      1.0093940727     0.2373369241    -1.4746990096
 H      3.0846583146    -0.7897811542     2.4938438538
 F      2.4160605267    -1.4125658930     2.4163508400
 H      1.1643761987    -0.8144580860     1.5235893305
 F      0.5608301364    -0.3758933081     0.9904082297
 H      3.5625792088     4.4928549036    -1.1363077518
 F      3.6960574245     4.1642737230    -0.2906677730
 H      1.1007181682     3.1198979019    -3.6092005147
 F      0.7531773050     3.4251778180    -4.4009760645
 H      1.2114239811     6.8439403528    -3.7096613849
 F      1.8550650118     7.1852550563    -3.1527776476
 H      3.8127720378     1.0295628015     1.6501618890
 F      4.0940682841     0.5199922290     2.3587515118
          22
Energy: -87.17737313757708 Kcal/mole
 H      3.2635542524     2.6101691346     0.0898841143
 F      3.0757467962     1.7492965819     0.3438837353
 H      0.3351413292     5.0162138870    -4.6145484398
 F      0.1801201200     5.9199412953    -4.6261327492
 H      1.4732859498     1.7735227163    -1.8623565417
 F      1.6658506744     2.6290077604    -2.1305974152
 H      2.8651438484     5.9473802734    -2.7903749704
 F      3.3127402995     5.1601464652    -2.6461205140
 H      0.8411306391     0.0165381982    -0.6007295680
 F      1.0091034541     0.2372780103    -1.4747707963
 H      3.0841274365    -0.7857475196     2.4878441222
 F      2.4176825446    -1.4114902630     2.4158286714
 H      1.1619713413    -0.8139426424     1.5267198851
 F      0.5609577085    -0.3759206512     0.9902421610
 H      3.5565940598     4.4933163451    -1.1351604854
 F      3.6963749228     4.1642492446    -0.2907286328
 H      1.1035786110     3.1203348816    -3.6102939531
 F      0.7530255651     3.4251546372    -4.4009180601
 H      1.2117767029     6.8437598997    -3.7099582257
 F      1.8550463007     7.1852646290    -3.1527619009
 H      3.8125457772     1.0371679389     1.6557873494
 F      4.0940802867     0.5195887941     2.3584530941
          22
Energy: -87.1797270436882 Kcal/mole
 H      3.2632430306     2.6082750709     0.0833311604
 F      3.0757633058     1.7493970576     0.3442313544
 H      0.3348941087     5.0161665183    -4.6149455620
 F      0.1801332345     5.9199438081    -4.6261116827
 H      1.4692364332     1.7743136643    -1.8627748434
 F      1.6660654919     2.6289658024    -2.1305752252
 H      2.8674291237     5.9487027288    -2.7902232718
 F      3.3126190709     5.1600763120    -2.6461285613
 H      0.8401658467     0.0182443708    -0.6004864360
 F      1.0091546341     0.2371875018    -1.4747836939
 H      3.0865154508    -0.7833768602     2.4812869266
 F      2.4226755147    -1.4113032278     2.4043842854
 H      1.1664893148    -0.8183713260     1.5179273416
 F      0.5607180405    -0.3756857197     0.9907085851
 H      3.5549679358     4.4957503790    -1.1339365122
 F      3.6964611849     4.1641201248    -0.2907935618
 H      1.1044959747     3.1225403719    -3.6098543176
 F      0.7529769010     3.4250376411    -4.4009413817
 H      1.2084951612     6.8492867363    -3.7095179316
 F      1.8552203789     7.1849714430    -3.1527852575
 H      3.8165992014     1.0335274099     1.6515175916
 F      4.0938652620     0.5197819157     2.3586795949
          22
Energy: -87.1792498147024 Kcal/mole
 H      3.2610563931     2.6088625090     0.0837043301
 F      3.0758793019     1.7493658954     0.3442115586
 H      0.3329771060     5.0158764268    -4.6123507032
 F      0.1802349271     5.9199591967    -4.6262493340
 H      1.4684601392     1.7744737480    -1.8628357622
 F      1.6661066725     2.6289573103    -2.1305719936
 H      2.8642301138     5.9479407236    -2.7843443525
 F      3.3127887710     5.1601167346    -2.6464404243
 H      0.8339291950     0.0111815727    -0.6005033969
 F      1.0027884069     0.2359436011    -1.4733479404
 H      3.0860529751    -0.7832778543     2.4844027114
 F      2.4227000480    -1.4113084798     2.4042190003
 H      1.1679411274    -0.8170230104     1.5121163532
 F      0.5527002838    -0.3869554076     0.9854195131
 H      3.5580070833     4.4939446736    -1.1351480418
 F      3.6962999651     4.1642159133    -0.2907292929
 H      1.1017607985     3.1222729151    -3.6087470571
 F      0.7531219958     3.4250518290    -4.4010001194
 H      1.2070109608     6.8479078140    -3.7069522841
 F      1.8552991123     7.1850445917    -3.1529213592
 H      3.8211031244     1.0356035852     1.6512783553
 F      4.0936263392     0.5196717794     2.3586922858
          22
Energy: -87.17881373176306 Kcal/mole
 H      3.2708572173     2.6069318749     0.0845042695
 F      3.0753593908     1.7494683111     0.3441691236
 H      0.3343081601     5.0160965506    -4.6127344737
 F      0.1801643177     5.9199475197    -4.6262289759
 H      1.4727565767     1.7717046940    -1.8613105218
 F      1.6655363481     2.6276468791    -2.1279337305
 H      2.8636781268     5.9469240753    -2.7882922483
 F      3.3128180526     5.1601706654    -2.6462309976
 H      0.8316759464     0.0141773399    -0.6001764222
 F      1.0029079366     0.2357846826    -1.4733652857
 H      3.0889240037    -0.7859003727     2.4810169839
 F      2.4225477466    -1.4111693613     2.4043986053
 H      1.1659813851    -0.8203122032     1.5117049794
 F      0.5528042436    -0.3867809235     0.9854413356
 H      3.5634920910     4.4912693007    -1.1386947657
 F      3.7008974671     4.1605537590    -0.2945170634
 H      1.1077260763     3.1198223691    -3.6123449159
 F      0.7528055516     3.4251818248    -4.4008092613
 H      1.2079089556     6.8474152071    -3.7077017645
 F      1.8552514758     7.1850707234    -3.1528816010
 H      3.8148362692     1.0303414077     1.6499060166
 F      4.0939587814     0.5199509258     2.3587650852
          22
Energy: -87.17914091413118 Kcal/mole
 H      3.2620243486     2.6078074498     0.0809310952
 F      3.0758279541     1.7494218638     0.3443586723
 H      0.3350475081     5.0161599925    -4.6180576392
 F      0.1801250970     5.9199441542    -4.6259465942
 H      1.4645236677     1.7745401644    -1.8583278300
 F      1.6659730849     2.6274964639    -2.1280919554
 H      2.8697893462     5.9503011013    -2.7887296406
 F      3.3124938666     5.1599915220    -2.6462077949
 H      0.8344174637     0.0067809650    -0.6015546087
 F      1.0027625054     0.2361770432    -1.4732921761
 H      3.0864936872    -0.7834455106     2.4820315074
 F      2.4226766692    -1.4112995861     2.4043447871
 H      1.1647604432    -0.8183243550     1.5147504095
 F      0.5528690118    -0.3868863742     0.9852797825
 H      3.5604275087     4.4904108886    -1.1385259058
 F      3.7010600361     4.1605992958    -0.2945260210
 H      1.1067429768     3.1211228201    -3.6114011080
 F      0.7528577028     3.4251128389    -4.4008593281
 H      1.2084819390     6.8441511332    -3.7063717300
 F      1.8552210803     7.1852438749    -3.1529521562
 H      3.8191710643     1.0399071320     1.6551892737
 F      4.0937288306     0.5194434862     2.3584848207
          22
Energy: -87.17806926512075 Kcal/mole
 H      3.2672493360     2.6064247610     0.0801782244
 F      3.0755507806     1.7494952123     0.3443986103
 H      0.3346051793     5.0161450935    -4.6128802402
 F      0.1801485616     5.9199449446    -4.6262212433
 H      1.4701282874     1.7725211262    -1.8606058261
 F      1.6656757728     2.6276035692    -2.1279711130
 H      2.8665077556     5.9489145660    -2.7861534779
 F      3.3126679474     5.1600650745    -2.6463444544
 H      0.8368770964     0.0092897682    -0.6004276543
 F      1.0026320276     0.2360439570    -1.4733519584
 H      3.0856553348    -0.7830019934     2.4855219398
 F      2.4227211419    -1.4113231136     2.4041596278
 H      1.1576359122    -0.8238682357     1.5183724854
 F      0.5532469517    -0.3865922842     0.9850876398
 H      3.5622189122     4.4936498414    -1.1375495670
 F      3.7009650063     4.1604274769    -0.2945778135
 H      1.1065746431     3.1182121164    -3.6124528574
 F      0.7528666325     3.4252672450    -4.4008035352
 H      1.2089521276     6.8427462232    -3.7060531212
 F      1.8551961379     7.1853184022    -3.1529690577
 H      3.8169197171     1.0273839284     1.6469723107
 F      4.0938482593     0.5201078132     2.3589207116
          22
Energy: -87.17999200793078 Kcal/mole
 H      3.2647679268     2.6071043198     0.0805954073
 F      3.0756824136     1.7494591633     0.3443764797
 H      0.3336223761     5.0159611130    -4.6140600931
 F      0.1802006970     5.9199547043    -4.6261586548
 H      1.4723137966     1.7716040644    -1.8619549493
 F      1.6655598366     2.6276522172    -2.1278995451
 H      2.8646412041     5.9474698648    -2.7883099128
 F      3.3127669636     5.1601417126    -2.6462300605
 H      0.8344035765     0.0062039318    -0.6017093515
 F      1.0027632421     0.2362076535    -1.4732839673
 H      3.0896286133    -0.7865915271     2.4805207538
 F      2.4225103687    -1.4111326972     2.4044249291
 H      1.1622978226    -0.8203853259     1.5159054186
 F      0.5529996481    -0.3867770445     0.9852185120
 H      3.5606110615     4.4944158420    -1.1369799483
 F      3.7010502990     4.1603868423    -0.2946080305
 H      1.1079870084     3.1227065197    -3.6113516466
 F      0.7527917098     3.4250288273    -4.4008619519
 H      1.2064445951     6.8474583466    -3.7060147222
 F      1.8553291567     7.1850684349    -3.1529710947
 H      3.8242234208     1.0331454489     1.6525489046
 F      4.1074878393     0.5153374535     2.3543502648
          22
Energy: -87.17749507217755 Kcal/mole
 H      3.2634013003     2.6083486678     0.0836874885
 F      3.0757549100     1.7493931535     0.3442124520
 H      0.3369865087     5.0100076140    -4.6172045599
 F      0.1850203904     5.9142362498    -4.6300837306
 H      1.4719436245     1.7729550551    -1.8579114861
 F      1.6655794734     2.6275805503    -2.1281140415
 H      2.8697194705     5.9491011956    -2.7950150021
 F      3.3124975733     5.1600551742    -2.6458743710
 H      0.8310903570     0.0087789414    -0.6016804638
 F      1.0029390007     0.2360710551    -1.4732854997
 H      3.0914795249    -0.7892572756     2.4858996770
 F      2.4224121821    -1.4109912854     2.4041395897
 H      1.1613925091    -0.8193277424     1.5178034597
 F      0.5530476729    -0.3868331469     0.9851178253
 H      3.5594768737     4.4890352216    -1.1389032441
 F      3.7011104651     4.1606722718    -0.2945060041
 H      1.1060503782     3.1223406433    -3.6106234169
 F      0.7528944435     3.4250482362    -4.4009005828
 H      1.2134752473     6.8409801426    -3.7174375779
 F      1.8598186654     7.1837907200    -3.1646174499
 H      3.8293779541     1.0310137405     1.6489287504
 F      4.1072144033     0.5154505357     2.3545423056
          22
Energy: -87.17594969034273 Kcal/mole
 H      3.2686398662     2.6057297860     0.0789409858
 F      3.0754770161     1.7495320791     0.3444642430
 H      0.3360885367     5.0200811054    -4.6136699221
 F      0.1847136450     5.9244085869    -4.6265714123
 H      1.4652576743     1.7747743076    -1.8570437510
 F      1.6659341476     2.6274840432    -2.1281600729
 H      2.8667827207     5.9477600679    -2.7933449439
 F      3.3126533611     5.1601263179    -2.6459629638
 H      0.8311288452     0.0106729012    -0.6011812978
 F      1.0029369590     0.2359705850    -1.4733119793
 H      3.0844394448    -0.7812013188     2.4813817206
 F      2.4227856421    -1.4114186352     2.4043792568
 H      1.1682350172    -0.8202204337     1.5091430979
 F      0.5526846936    -0.3867857917     0.9855772374
 H      3.5648254593     4.4913236292    -1.1388893777
 F      3.7008267350     4.1605508770    -0.2945067397
 H      1.1067428520     3.1163410812    -3.6132598699
 F      0.7528577094     3.4253664991    -4.4007607251
 H      1.2171310239     6.8400663459    -3.7211187330
 F      1.8596247349     7.1838391948    -3.1644221731
 H      3.8104945972     1.0361048529     1.6532180457
 F      4.0936454849     0.5192325297     2.3557545760
          22
Energy: -87.17747934181563 Kcal/mole
 H      3.2758003442     2.6063287463     0.0751754335
 F      3.0847620403     1.7487325389     0.3377056441
 H      0.3376239374     5.0203490871    -4.6130173781
 F      0.1846321955     5.9243943710    -4.6266060283
 H      1.4714998687     1.7714988518    -1.8628881080
 F      1.6656030136     2.6276577985    -2.1278500432
 H      2.8627057758     5.9446413204    -2.7975217255
 F      3.3128696336     5.1602917603    -2.6457413951
 H      0.8360902410     0.0108900745    -0.6001633246
 F      1.0026737684     0.2359590644    -1.4733659805
 H      3.0860455448    -0.7826722813     2.4795650078
 F      2.4227004422    -1.4113406041     2.4044756292
 H      1.1634066013    -0.8200562407     1.5148989485
 F      0.5529408300    -0.3867945017     0.9852719029
 H      3.5577518084     4.4982350872    -1.1349720496
 F      3.7012019758     4.1601842402    -0.2947145449
 H      1.1082489843     3.1255114567    -3.6073176507
 F      0.7552233345     3.4308403337    -4.3966440518
 H      1.2120174255     6.8453650219    -3.7184309704
 F      1.8598959995     7.1835581123    -3.1645647527
 H      3.8177652043     1.0360783447     1.6503141300
 F      4.0932597959     0.5192339359     2.3559086220
          22
Energy: -87.17843344688981 Kcal/mole
 H      3.2755465116     2.6067972904     0.0765255224
 F      3.0847755055     1.7487076837     0.3376340250
 H      0.3383976748     5.0205455058    -4.6092389614
 F      0.1845911505     5.9243839515    -4.6268064646
 H      1.4685547380     1.7738057925    -1.8576731681
 F      1.6657592460     2.6275354207    -2.1281266837
 H      2.8633386677     5.9462440408    -2.7909566820
 F      3.3128360601     5.1602067397    -2.6460896555
 H      0.8337350027     0.0066927947    -0.6017099042
 F      1.0027987084     0.2361817204    -1.4732839380
 H      3.0855926530    -0.7826243840     2.4830769406
 F      2.4227244670    -1.4113431449     2.4042893293
 H      1.1615465531    -0.8177227422     1.5189268403
 F      0.5530395012    -0.3869182884     0.9850582325
 H      3.5658354395     4.4930636364    -1.1383677388
 F      3.7007731578     4.1604585737    -0.2945344114
 H      1.1085547368     3.1221117880    -3.6087786611
 F      0.7552071150     3.4310206783    -4.3965665485
 H      1.2125283655     6.8428834764    -3.7175064794
 F      1.8598688953     7.1836897525    -3.1646137948
 H      3.8163120907     1.0321801440     1.6480428407
 F      4.0933368803     0.5194407265     2.3560291086
          22
Energy: -87.17665511095768 Kcal/mole
 H      3.2753520374     2.6054271084     0.0719270631
 F      3.0847858219     1.7487803687     0.3378779626
 H      0.3409034096     5.0209515732    -4.6105280851
 F      0.1844582271     5.9243624105    -4.6267380795
 H      1.4705655510     1.7718553975    -1.8624228894
 F      1.6656525770     2.6276388846    -2.1278747220
 H      2.8661590282     5.9476509382    -2.7920337368
 F      3.3126864465     5.1601321070    -2.6460325203
 H      0.8366025451     0.0113860870    -0.5999380802
 F      1.0026465919     0.2359327521    -1.4733779292
 H      3.0864059011    -0.7832533110     2.4812235630
 F      2.4226813261    -1.4113097818     2.4043876467
 H      1.1645611981    -0.8174850180     1.5156630340
 F      0.5528795813    -0.3869308991     0.9852313699
 H      3.5638412132     4.4901685486    -1.1391036913
 F      3.6982413195     4.1612953135    -0.2937232996
 H      1.1077891686     3.1245781301    -3.6074737682
 F      0.7552477266     3.4308898445    -4.3966357701
 H      1.2153614464     6.8413472656    -3.7198614196
 F      1.8597186069     7.1837712450    -3.1644888707
 H      3.8226390242     1.0345291817     1.6473027096
 F      4.0930012511     0.5193161154     2.3560683709
          22
Energy: -87.17620776370762 Kcal/mole
 H      3.2735751816     2.6091493141     0.0829161085
 F      3.0848800800     1.7485829143     0.3372950192
 H      0.3383732060     5.0204896738    -4.6121516365
 F      0.1845924485     5.9243869132    -4.6266519539
 H      1.4750590917     1.7713189301    -1.8608952307
 F      1.6654142050     2.6276673430    -2.1279557608
 H      2.8643395289     5.9472047791    -2.7888257914
 F      3.3127829668     5.1601557747    -2.6462026944
 H      0.8478469283     0.0025659486    -0.6015251445
 F      1.0173863672     0.2322463825    -1.4729563104
 H      3.0850328718    -0.7816276224     2.4797497898
 F      2.4227541621    -1.4113960208     2.4044658270
 H      1.1658138268    -0.8345499854     1.5137313164
 F      0.5538221678    -0.4099583635     0.9788694989
 H      3.5595453991     4.4943376745    -1.1367731429
 F      3.6984692025     4.1610741510    -0.2938469298
 H      1.1077672544     3.1216052296    -3.6086246849
 F      0.7552488891     3.4310475500    -4.3965747166
 H      1.2127482374     6.8457429577    -3.7195148380
 F      1.8598572316     7.1835380637    -3.1645072560
 H      3.8165638688     1.0316099288     1.6475318441
 F      4.0933235240     0.5194709751     2.3560562158
          22
Energy: -87.17662431979309 Kcal/mole
 H      3.2705567899     2.6089160524     0.0799254594
 F      3.0850401987     1.7485952883     0.3374536662
 H      0.3377462618     5.0203987858    -4.6112147586
 F      0.1846257065     5.9243917346    -4.6267016531
 H      1.4731670741     1.7719767583    -1.8601434736
 F      1.6655145722     2.6276324467    -2.1279956397
 H      2.8701420706     5.9498637085    -2.7922049185
 F      3.3124751553     5.1600147247    -2.6460234395
 H      0.8465030190     0.0055407048    -0.6010091574
 F      1.0174576584     0.2320885786    -1.4729836823
 H      3.0894749596    -0.7868042253     2.4835495360
 F      2.4225185196    -1.4111214140     2.4042642592
 H      1.1686002523    -0.8136273925     1.5221516378
 F      0.5572099987    -0.3828993742     0.9915252796
 H      3.5609392005     4.4931594331    -1.1374663119
 F      3.6983952646     4.1611366540    -0.2938101588
 H      1.1036246742     3.1185006912    -3.6080087196