          4
Energy: -0.11998731334227569 Kcal/mole
 He    -2.4519935126     2.8867727148     7.2406442748
 He    -3.0647579219     2.4464492313     4.4702710903
 He    -2.6093641413     5.1109359187     5.4390278368
 He    -4.9917838988     3.7142531232     6.1797289498
