          4
Energy: -0.0010575945302050836 Kcal/mole
 He     1.2426652628    -4.7841530783    -0.3765602730
 He    -2.0353933941    -3.0128153525     3.6601447051
 He     1.3629354079     4.4908475310    -0.6090512892
 He    -4.8271392455    -4.9637272121    -4.6337124198
