          4
Energy: -0.11996636410587207 Kcal/mole
 He    -0.9947177779     4.1465893244     2.8441188966
 He    -2.9172546566     2.1245380645     3.4614304104
 He    -3.2820613367     3.7854654524     1.1455523566
 He    -3.6122656563     4.8868064209     3.7589879619
