          4
Energy: -8.036552486174657E-4 Kcal/mole
 He     6.0101324312    -7.2192742984    -4.9769881939
 He    -4.6598531815     4.7319457416     2.7565199388
 He    -3.2417349049     1.0152129698    -1.1720265511
 He     5.3308023770     2.9226064836    -1.9369778044
          4
Energy: -0.001727356505733729 Kcal/mole
 He    -1.2779750449     7.0831201713     1.8044352497
 He     0.5834900079     5.1154624857     6.0906910791
 He     2.3336176634    -1.2719119504     1.3379017929
 He    -6.8238251074     5.5405796410     5.8715395658
          4
Energy: -0.020345866072026386 Kcal/mole
 He     6.9358919377     4.1371039277     3.0694405550
 He     3.8855374154     2.7523791070    -3.4646042887
 He    -0.4872110683     5.6236124821    -3.3852756800
 He    -2.0689675471     4.1768336965    -5.1311961727
          4
Energy: -0.014943437723961695 Kcal/mole
 He    -2.1854253361    -0.7564811146    -5.1151923883
 He    -5.6470262165    -6.0216926950    -3.9293142696
 He     3.6896338310     5.4302005072    -1.2090745476
 He    -0.1951035174    -0.7546396274    -6.9009659789
          4
Energy: -0.030948474711134922 Kcal/mole
 He    -7.3125203300    -3.1903455419    -0.9049036034
 He     3.5551083923     1.9723258210    -0.7370012056
 He    -4.5878241521    -4.5868806449    -0.4568292244
 He    -7.2710898959    -7.0885310754    -0.9495561073
          4
Energy: -0.007337036366119682 Kcal/mole
 He     6.9005242436    -7.2687508256     7.0291983888
 He    -2.0835544224     3.8207562525     4.0193736907
 He    -2.9764285921    -3.9900974708     0.3499443835
 He    -2.7754177004    -3.9181778115    -3.3898879499
          4
Energy: -0.0030701789227674595 Kcal/mole
 He    -4.3800788662    -2.6966955430    -0.2959477800
 He    -7.3627861843     2.4285560958    -6.2244997468
 He    -5.0443968565    -7.1647125068     0.2523020905
 He    -5.7695832312     0.1935773725     4.7170926514
          4
Energy: -6.177620024006845E-4 Kcal/mole
 He     2.5477713910    -0.0493318276    -6.1453490923
 He     1.7557080455     4.5174196262     3.3804163944
 He    -5.9146536610     1.4126888347    -3.0341349482
 He    -7.0319098597    -2.2176374573     1.4703901495
          4
Energy: -0.06820971266805222 Kcal/mole
 He    -1.2863349340     4.2787891526     2.7378784935
 He    -1.6569892014     2.4482332154     4.9966041225
 He    -2.5072853138     3.0144791177     0.4485597815
 He    -3.1252117630     6.0093072225     4.3244652766
          4
Energy: -0.11996636410587207 Kcal/mole
 He    -0.9947177779     4.1465893244     2.8441188966
 He    -2.9172546566     2.1245380645     3.4614304104
 He    -3.2820613367     3.7854654524     1.1455523566
 He    -3.6122656563     4.8868064209     3.7589879619
