          4
Energy: -0.1199803036859988 Kcal/mole
 He    -0.7746397737    -0.2345464755    -1.5726975973
 He    -1.4701199567    -0.0195911341     1.1970467927
 He     0.3991589591     1.8307638716     0.0258935469
 He     1.1460099287    -0.9059017040     0.4424356949
