          4
Energy: -1.7015035439895597E-4 Kcal/mole
 He    -3.5149002217    -3.8170913177     6.3834882991
 He     2.6148471279    -1.1954082194    -0.2376689067
 He     0.9308764156     6.4403472136    -7.2590519443
 He    -3.9666811052     3.8348400994     1.0200688255
          4
Energy: -2.2199109740725562E-4 Kcal/mole
 He    -1.6873864861    -0.6948819456     5.0343325883
 He    -7.2709435684    -5.4921514681     2.3680533139
 He    -7.2362370574     7.2055476523    -1.1472749811
 He     1.3574535327     5.7640352569     0.6054487079
          4
Energy: -0.0015454113439767466 Kcal/mole
 He     5.4042432327    -1.3115574115    -1.7208184239
 He     5.6230161450     5.0938595015    -6.4663272023
 He     1.5916237837     6.9988345829     1.2170138529
 He     1.0061860301     7.2648052162    -5.9955009645
          4
Energy: -2.722220717227444E-4 Kcal/mole
 He    -0.1523717142     6.2773861285    -3.4230347201
 He     6.8947397634     5.8774509121    -4.6408051578
 He    -5.1954139362     2.6047012992     1.6206961622
 He     1.1679425752    -6.1114091290    -0.2693978230
          4
Energy: -0.03542708927037572 Kcal/mole
 He    -1.3164472031     2.9111230432     3.5380925836
 He    -2.5667249264     5.6177697632     5.6136424431
 He    -1.2592319342     3.1178795465     7.0152763650
 He     6.5291701775     3.6582652313    -1.3728268921
          4
Energy: -0.03282073252584012 Kcal/mole
 He    -0.6453547753     2.1750928279    -4.6269669966
 He     1.1490962041    -5.4306701022    -6.2191165766
 He     2.1623794529     1.7795410073    -5.5558153713
 He    -3.2423632239     1.8158087916    -5.0130697074
          4
Energy: -0.0027926297857622843 Kcal/mole
 He     4.4159921686     4.7235257828     4.6810284081
 He     6.6700756262     4.3247625567    -3.8693686062
 He    -1.8208621420     3.1013337618     2.1924897433
 He     6.2207807631     7.0476628055     0.7752103095
          4
Energy: -0.015602967356157753 Kcal/mole
 He    -3.7740526658    -4.0232550905    -0.0436952526
 He    -4.3609786779     0.8832117258    -3.4024887483
 He    -5.3056921765    -5.9603517219    -1.0845070867
 He    -2.7059376081     5.6749656311     3.4390284499
          4
Energy: -0.09367469019902014 Kcal/mole
 He     1.3906294291    -7.4409552365    -3.3003090700
 He     1.9462760324    -6.0443216845    -0.5360076830
 He    -0.6049817976    -5.5098627665    -1.9435168184
 He     1.7285388877    -3.5227381789    -1.6939163481
          4
Energy: -0.11997860104778728 Kcal/mole
 He     1.8751518828    -6.2423111648    -3.4258292770
 He     1.9232991811    -6.2308521054    -0.5679816053
 He    -0.4885821054    -5.5635720068    -1.9609336804
 He     1.7379731296    -3.7552057637    -2.0147555725
