          4
Energy: -0.11997860104778728 Kcal/mole
 He     1.8751518828    -6.2423111648    -3.4258292770
 He     1.9232991811    -6.2308521054    -0.5679816053
 He    -0.4885821054    -5.5635720068    -1.9609336804
 He     1.7379731296    -3.7552057637    -2.0147555725
