          4
Energy: -0.11998124159312147 Kcal/mole
 He    -1.8144578346    -3.5403004986     0.1377274149
 He    -0.8364629942    -5.7681592482    -1.3927202600
 He     0.1540659991    -3.1214512519    -1.8999556968
 He    -2.5455926843    -3.8131037983    -2.6128513284
