          4
Energy: -0.11995228945197119 Kcal/mole
 He     4.6766469606    -0.1361628078    -2.0051022533
 He     2.1968030715    -0.9981662627    -0.8468537360
 He     4.2403850346     0.1569061079     0.7986082900
 He     2.7752388122     1.7890778770    -1.0600107926
