          4
Energy: -0.11996064717524471 Kcal/mole
 He     5.7545428541    -4.0067650543    -0.7841199213
 He     3.5369755795    -2.5562122197    -1.8865926098
 He     6.2212530377    -1.8470525567    -2.5859401006
 He     5.0880318609    -4.2858431903    -3.5654464540
