          4
Energy: -0.02538094008536471 Kcal/mole
 He    -1.4734899303    -5.3901475330    -6.7455938960
 He     0.9671093099    -3.4562243516    -6.9810442955
 He     0.0783365705    -3.2652990929    -1.2009877631
 He    -0.0502371194     0.1109029089     0.3669160402
          4
Energy: -0.002616879743753875 Kcal/mole
 He     3.1706477645     7.3649350924    -4.2108554540
 He     5.5023805267     7.1765618894    -0.3690846538
 He     1.7046437740    -5.0647177749    -6.8858662565
 He     5.1272726222    -4.7042530751     7.2275733313
          4
Energy: -1.150135582418151E-4 Kcal/mole
 He     3.0415765222    -3.8203827602    -5.3614310034
 He    -0.7600414150     3.3600870153    -4.2843366810
 He     1.2725588502     2.6181448735     5.1013023339
 He    -6.7039474546    -7.0007480574     7.4373228220
          4
Energy: -0.03715001910931586 Kcal/mole
 He    -3.9516344866     1.7338150261    -0.3835997259
 He    -5.2651396520     7.2419065172     4.3183029773
 He    -1.6415789033     2.3869786977     1.9030274828
 He    -5.8455151793     3.6135862349     0.8822682910
          4
Energy: -3.840094938409519E-5 Kcal/mole
 He     7.2195148559     3.2286323295     6.3506996499
 He    -0.2729810928    -7.1180204007     2.5193573656
 He     1.4262957430     1.0601806651    -6.3233058822
 He    -6.2251841720     1.8142544020     2.9990887821
          4
Energy: -3.374014507709555E-4 Kcal/mole
 He     4.8527325290    -5.6895760850     1.4576296246
 He     1.9581735214    -1.7285502869     6.0525116416
 He    -6.0773828815    -0.3614120545    -1.1970121243
 He    -6.8281773685    -6.1261442155    -6.9789023731
          4
Energy: -0.002718346396576701 Kcal/mole
 He    -0.3420264743     1.3070993145    -5.7978058130
 He     4.3640233872    -2.4843201046    -3.2412053833
 He    -2.0358085393    -0.2868858851    -1.8039618401
 He    -6.0289533730     7.0908447310     5.9978449678
          4
Energy: -0.0017610102670970037 Kcal/mole
 He     6.8901243662    -0.7277013882    -0.3885817540
 He    -6.9358554450     0.6147496822    -2.4435787685
 He     0.3262428431     3.6088612686    -0.2945705339
 He     1.2458216606    -1.6878758619    -0.5015295950
          4
Energy: -0.07479679680836696 Kcal/mole
 He    -1.1903086304    -2.4994517804     0.3971972861
 He    -0.6231883491    -6.2813453953    -1.5351075330
 He     0.0496826119    -3.5040835720    -1.6719565252
 He    -2.6475041081    -3.8637000145    -2.5571384951
          4
Energy: -0.11998124159312147 Kcal/mole
 He    -1.8144578346    -3.5403004986     0.1377274149
 He    -0.8364629942    -5.7681592482    -1.3927202600
 He     0.1540659991    -3.1214512519    -1.8999556968
 He    -2.5455926843    -3.8131037983    -2.6128513284
