          4
Energy: -0.1199731662185945 Kcal/mole
 He     0.3626143515    -4.4722080778     2.5532223763
 He    -0.0239114601    -4.5134967166     5.4010206219
 He     2.1820215194    -3.0478791542     4.2695232793
 He    -0.5063535234    -2.0976846889     3.9171437065
