          4
Energy: -0.002131421750867109 Kcal/mole
 He    -3.3436608904     3.1759209193    -4.0685401362
 He     0.3987515170     1.8549550434    -0.3483706535
 He     4.4935370941     2.9018689829    -4.6359361043
 He    -4.9518574026    -0.1367767153     1.5455794827
