          12
Energy: -46.10515709598201 Kcal/mole
 H     -4.3260510103    -0.3263975035     1.7473442946
 F     -4.1370612896    -0.0808368141     2.6104038715
 H     -7.2113974259    -2.7612170834     0.9474115995
 F     -7.1268664361    -2.0478574601     0.3774453202
 H     -5.6677099036    -2.6938782023     4.4853400761
 F     -6.5056024222    -3.0618735458     4.4269915159
 H     -6.9865404157    -3.6931896380     2.9739488945
 F     -7.1762169679    -3.9386401231     2.1110086504
 H     -4.1002714674    -1.2592482915     3.7728389122
 F     -4.1839900487    -1.9732797301     4.3420834149
 H     -5.6432761067    -1.3266863380     0.2351884071
 F     -4.8056063841    -0.9582716801     0.2940872672
