          12
Energy: -46.10275734765426 Kcal/mole
 H     -4.3453542718    -0.3234270376     1.7540020050
 F     -4.1629705475    -0.0846690821     2.6203851857
 H     -7.2153019929    -2.7536189499     0.9349601521
 F     -7.1235955899    -2.0460299319     0.3589421686
 H     -5.6734173841    -2.7005748015     4.4926095506
 F     -6.5135119546    -3.0639620791     4.4371136125
 H     -6.9943506717    -3.6805857686     2.9783067449
 F     -7.1873563787    -3.9219090617     2.1149407360
 H     -4.1128432638    -1.2651773508     3.7836867572
 F     -4.1919454474    -1.9810305589     4.3513010885
 H     -5.6426325943    -1.3137893221     0.2225821450
 F     -4.8090145317    -0.9375601144     0.2890765732
          12
Energy: -46.103177822806174 Kcal/mole
 H     -4.3429785675    -0.3208243840     1.7527930869
 F     -4.1630965731    -0.0848071469     2.6204493160
 H     -7.2116132546    -2.7522475742     0.9409488939
 F     -7.1206446502    -2.0446817840     0.3647854054
 H     -5.6745013589    -2.6982044796     4.4934270483
 F     -6.5134544522    -3.0640878192     4.4370702461
 H     -6.9954792649    -3.6783550156     2.9779316171
 F     -7.1872965094    -3.9220273980     2.1149606357
 H     -4.1133480646    -1.2669192943     3.7814273236
 F     -4.1919186689    -1.9809381528     4.3514209462
 H     -5.6417937722    -1.3164657347     0.2274601142
 F     -4.8090590293    -0.9374181369     0.2888178082
          12
Energy: -46.10169351506309 Kcal/mole
 H     -4.3451536146    -0.3215195258     1.7534365221
 F     -4.1629811918    -0.0847702712     2.6204151832
 H     -7.2090601198    -2.7541571619     0.9389941226
 F     -7.1207800880    -2.0445804847     0.3648891015
 H     -5.6753596716    -2.6968351519     4.4971596745
 F     -6.5134089207    -3.0641604588     4.4368722389
 H     -6.9941593636    -3.6739011004     2.9763659459
 F     -7.1873665271    -3.9222636679     2.1150436909
 H     -4.1152384768    -1.2639600958     3.7848961705
 F     -4.1918183869    -1.9810951315     4.3512369319
 H     -5.6426805570    -1.3143436512     0.2264401731
 F     -4.8090119874    -0.9375307085     0.2888719137
          12
Energy: -46.10054101104521 Kcal/mole
 H     -4.3438784861    -0.3163847691     1.7517850757
 F     -4.1630488345    -0.0850426582     2.6205027886
 H     -7.2129725414    -2.7536891421     0.9389567281
 F     -7.1205725431    -2.0446053121     0.3648910852
 H     -5.6767203161    -2.6933455647     4.4946339100
 F     -6.5133367416    -3.0643455734     4.4370062249
 H     -6.9979256553    -3.6848454089     2.9802753415
 F     -7.1871667341    -3.9216830977     2.1148363065
 H     -4.1107464502    -1.2696843957     3.7783442541
 F     -4.1920566785    -1.9807914706     4.3515844959
 H     -5.6454927035    -1.3079262165     0.2256774193
 F     -4.8088628095    -0.9378711386     0.2889123760
          12
Energy: -46.101445617325936 Kcal/mole
 H     -4.3401839459    -0.3261748102     1.7536917156
 F     -4.1632448213    -0.0845233192     2.6204016458
 H     -7.2085795253    -2.7512385794     0.9426549892
 F     -7.1208055825    -2.0447353088     0.3646949010
 H     -5.6738425223    -2.6992124361     4.4900426686
 F     -6.5134894020    -3.0640343494     4.4372497796
 H     -7.0039034610    -3.6837916615     2.9812710878
 F     -7.1868496253    -3.9217389965     2.1147834845
 H     -4.1133256616    -1.2677667863     3.7803704722
 F     -4.1919198573    -1.9808931953     4.3514770097
 H     -5.6427700367    -1.3140549838     0.2258960065
 F     -4.8090072407    -0.9375460217     0.2889007805
          12
Energy: -46.10117549725959 Kcal/mole
 H     -4.3361911005    -0.3292489412     1.7526196193
 F     -4.1619031434    -0.0898642686     2.6204950058
 H     -7.2118346900    -2.7522486601     0.9409125526
 F     -7.1206329035    -2.0446817264     0.3647873332
 H     -5.6753124983    -2.6978420881     4.5023911848
 F     -6.5134114231    -3.0641070432     4.4365947194
 H     -6.9938130463    -3.6799269239     2.9780019043
 F     -7.1873848985    -3.9219440119     2.1149569071
 H     -4.1143968683    -1.2630440953     3.7901863060
 F     -4.1964878438    -1.9737438604     4.3638202621
 H     -5.6419180652    -1.3159761399     0.2261395932
 F     -4.8090524358    -0.9374441088     0.2888878588
          12
Energy: -46.101561534183276 Kcal/mole
 H     -4.3480919303    -0.3255446048     1.7540833484
 F     -4.1612718319    -0.0900607751     2.6204173584
 H     -7.2090807363    -2.7580572756     0.9497470894
 F     -7.1201788106    -2.0466879817     0.3779611370
 H     -5.6762164302    -2.6957065897     4.5019732724
 F     -6.5133634716    -3.0642203264     4.4366168887
 H     -6.9942659449    -3.6834946209     2.9797474194
 F     -7.1875186919    -3.9298914551     2.1178709922
 H     -4.1150316802    -1.2655921321     3.7869545038
 F     -4.1964541685    -1.9736086930     4.3639917018
 H     -5.6422864447    -1.3152149205     0.2264438242
 F     -4.8090328941    -0.9374844897     0.2888717200
          12
Energy: -46.100973028506615 Kcal/mole
 H     -4.3428809468    -0.3294291451     1.7540411861
 F     -4.1615482625    -0.0898547092     2.6204195950
 H     -7.2087773748    -2.7595257434     0.9479623052
 F     -7.1201949032    -2.0466100829     0.3780558157
 H     -5.6745603114    -2.6984892855     4.4960867944
 F     -6.5134513249    -3.0640727109     4.4369291527
 H     -7.0023349276    -3.6884868747     2.9829227197
 F     -7.1870906510    -3.9296266275     2.1177025498
 H     -4.1053084497    -1.2634170472     3.7896502045
 F     -4.1864447922    -1.9756967936     4.3614573895
 H     -5.6429742592    -1.3149102165     0.2343069829
 F     -4.8089964072    -0.9375006536     0.2884545976
          12
Energy: -46.10220962741897 Kcal/mole
 H     -4.3445042168    -0.3256832012     1.7533555073
 F     -4.1614621518    -0.0900534229     2.6204559687
 H     -7.2104915221    -2.7570009998     0.9508379149
 F     -7.1201039716    -2.0467440147     0.3779032712
 H     -5.6743814659    -2.6994606323     4.4994443833
 F     -6.5134608122    -3.0640211832     4.4367510404
 H     -6.9947770472    -3.6877331834     2.9810615687
 F     -7.1874915791    -3.9296666091     2.1178012796
 H     -4.1093772756    -1.2653165283     3.7867331465
 F     -4.1862289504    -1.9755960305     4.3616121327
 H     -5.6437967215    -1.3130304040     0.2339146111
 F     -4.8089527774    -0.9376003733     0.2884754121
          12
Energy: -46.101620591102204 Kcal/mole
 H     -4.3439072835    -0.3183293880     1.7494403123
 F     -4.1683359548    -0.0831954699     2.6182186206
 H     -7.2078998684    -2.7574636203     0.9506668818
 F     -7.1202414529    -2.0467194738     0.3779123441
 H     -5.6760964696    -2.6948199361     4.4950440167
 F     -6.5133698353    -3.0642673614     4.4369844697
 H     -7.0002600977    -3.6869286104     2.9820408044
 F     -7.1872007159    -3.9297092899     2.1177493334
 H     -4.1167544674    -1.2607263412     3.7889020073
 F     -4.1941490315    -1.9767903914     4.3564857963
 H     -5.6441269128    -1.3116957733     0.2299530875
 F     -4.8089352616    -0.9376711723     0.2886855617
          12
Energy: -46.10098527807702 Kcal/mole
 H     -4.3475185771    -0.3240819035     1.7517582455
 F     -4.1681443840    -0.0828903122     2.6180956596
 H     -7.2070263131    -2.7587953598     0.9491435258
 F     -7.1202877930    -2.0466488281     0.3779931546
 H     -5.6770408112    -2.6924442234     4.4934631230
 F     -6.5133197401    -3.0643933874     4.4370683324
 H     -6.9961314167    -3.6840890520     2.9803330887
 F     -7.1874197329    -3.9298599219     2.1178399238
 H     -4.1118972466    -1.2636864167     3.7858684458
 F     -4.1944066959    -1.9766333662     4.3566467198
 H     -5.6449504607    -1.3096924009     0.2289570860
 F     -4.8088915742    -0.9377774466     0.2887383973
          12
Energy: -46.10124865319065 Kcal/mole
 H     -4.3489990489    -0.3189778409     1.7506616812
 F     -4.1680658484    -0.0831610709     2.6181538298
 H     -7.2061873000    -2.7620553225     0.9375037716
 F     -7.1128507124    -2.0540120347     0.3623064281
 H     -5.6761324234    -2.6954630092     4.4994728963
 F     -6.5133679280    -3.0642332478     4.4367495279
 H     -6.9957918445    -3.6867837194     2.9810208409
 F     -7.1874377464    -3.9297169760     2.1178034401
 H     -4.1174623715    -1.2651910031     3.7832217462
 F     -4.1941114789    -1.9765535514     4.3567871211
 H     -5.6408572764    -1.3187668924     0.2290403629
 F     -4.8091087082    -0.9372960658     0.2887339797
          12
Energy: -46.098209754697876 Kcal/mole
 H     -4.3541783798    -0.3218265569     1.7525396716
 F     -4.1677910969    -0.0830099531     2.6180542068
 H     -7.2079867326    -2.7702237231     0.9339547979
 F     -7.1100833621    -2.0671220626     0.3534791437
 H     -5.6675208632    -2.7013224824     4.4898995500
 F     -6.5050877563    -3.0694460984     4.4278052435
 H     -6.9897878660    -3.6809904408     2.9780094978
 F     -7.1877562436    -3.9300242960     2.1179631849
 H     -4.1068025883    -1.2647193210     3.7769306248
 F     -4.1794367286    -1.9827432791     4.3426645528
 H     -5.6380502835    -1.3243783772     0.2262069080
 F     -4.8092576127    -0.9369983895     0.2888842879
          12
Energy: -46.09922523039228 Kcal/mole
 H     -4.3476050473    -0.3281316536     1.7529143991
 F     -4.1681397970    -0.0826754823     2.6180343284
 H     -7.2007427940    -2.7690642569     0.9365261551
 F     -7.1104676363    -2.0671835696     0.3533427391
 H     -5.6614558591    -2.7037237100     4.4964521632
 F     -6.5013763412    -3.0676786156     4.4420516998
 H     -7.0003261216    -3.6909528698     2.9831748532
 F     -7.1871972135    -3.9294958122     2.1176891747
 H     -4.1073077305    -1.2616320661     3.7808071779
 F     -4.1794099320    -1.9829070509     4.3424589107
 H     -5.6404675942    -1.3189706962     0.2250548902
 F     -4.8091293800    -0.9372852545     0.2889453998
          12
Energy: -46.10097346403987 Kcal/mole
 H     -4.3492755751    -0.3199693350     1.7509895899
 F     -4.1680511794    -0.0831084745     2.6181364350
 H     -7.1997858316    -2.7665018135     0.9397421833
 F     -7.1105184009    -2.0673195013     0.3531721363
 H     -5.6616478666    -2.7040424499     4.5013185915
 F     -6.5013661556    -3.0676617071     4.4417935470
 H     -6.9838281886    -3.6784272901     2.9855377025
 F     -7.1829698894    -3.9210846034     2.1239409225
 H     -4.1097519298    -1.2660561711     3.7748689591
 F     -4.1792802728    -1.9826723623     4.3427739194
 H     -5.6387457895    -1.3221378657     0.2217678874
 F     -4.8092207177    -0.9371172435     0.2891197677
          12
Energy: -46.10056686983637 Kcal/mole
 H     -4.3438432465    -0.3229555090     1.7506933499
 F     -4.1683393518    -0.0829500648     2.6181521499
 H     -7.2032989905    -2.7651082382     0.9408547184
 F     -7.1103320360    -2.0673934273     0.3531131188
 H     -5.6602028711    -2.7066766339     4.4967619513
 F     -6.5014428093    -3.0675219698     4.4420352663
 H     -6.9898019305    -3.6807327058     2.9875402030
 F     -7.1826529962    -3.9209623064     2.1238346945
 H     -4.1145625908    -1.2644950734     3.7762754274
 F     -4.1790250784    -1.9827551749     4.3426993096
 H     -5.6372962941    -1.3220051601     0.2212435990
 F     -4.8078057817    -0.9368509706     0.2882565832
          12
Energy: -46.10096361741111 Kcal/mole
 H     -4.3474801713    -0.3185534918     1.7502311563
 F     -4.1681464214    -0.0831835817     2.6181766682
 H     -7.2012472073    -2.7679418614     0.9377960907
 F     -7.1104408783    -2.0672431101     0.3532753720
 H     -5.6644236145    -2.6969152642     4.4961880157
 F     -6.5012189086    -3.0680397879     4.4420657122
 H     -6.9839364676    -3.6828309682     2.9867901502
 F     -7.1829641455    -3.9208509984     2.1238744831
 H     -4.1039655851    -1.2656132199     3.7761691119
 F     -4.1795872250    -1.9826958598     4.3427049493
 H     -5.6372014659    -1.3223478233     0.2220452942
 F     -4.8078108121    -0.9368327931     0.2882140551
          12
Energy: -46.10031824456945 Kcal/mole
 H     -4.3511305736    -0.3183740177     1.7509451402
 F     -4.1679527760    -0.0831931024     2.6181387930
 H     -7.1968730542    -2.7692599778     0.9368759584
 F     -7.1106729171    -2.0671731871     0.3533241829
 H     -5.6637615711    -2.6988474075     4.4990791277
 F     -6.5012540285    -3.0679372921     4.4419123454
 H     -6.9882409102    -3.6801765561     2.9870351371
 F     -7.1827358047    -3.9209918089     2.1238614871
 H     -4.1060159853    -1.2676386214     3.7733469290
 F     -4.1794784561    -1.9825884170     4.3428546596
 H     -5.6352837329    -1.3261704218     0.2204448136
 F     -4.8079125434    -0.9366300131     0.2882989569
          12
Energy: -46.099974111825645 Kcal/mole
 H     -4.3483057754    -0.3192584001     1.7505936936
 F     -4.1681026250    -0.0831461879     2.6181574364
 H     -7.1941960534    -2.7660643635     0.9410844637
 F     -7.1108149258    -2.0673427070     0.3531009314
 H     -5.6608160832    -2.7049337771     4.4946193443
 F     -6.5014102798    -3.0676144243     4.4421489266
 H     -6.9827975574    -3.6770613354     2.9834663179
 F     -7.1684319186    -3.9205147208     2.1190825299
 H     -4.1098471993    -1.2682432874     3.7721089679
 F     -4.1792752190    -1.9825563408     4.3429203306
 H     -5.6383972574    -1.3202683412     0.2250352783
 F     -4.8077473781    -0.9369431048     0.2880554434
          12
Energy: -46.1005764175753 Kcal/mole
 H     -4.3470954981    -0.3180997478     1.7500288686
 F     -4.1681668274    -0.0832076517     2.6181873991
 H     -7.1953835129    -2.7664438738     0.9404633491
 F     -7.1107519338    -2.0673225749     0.3531338801
 H     -5.6618187391    -2.7028180942     4.4959847205
 F     -6.5013570912    -3.0677266564     4.4420764966
 H     -6.9853689407    -3.6774070193     2.9841115539
 F     -7.1682955127    -3.9204963830     2.1190483016
 H     -4.1071883976    -1.2671765175     3.7737774527
 F     -4.1794162623    -1.9826129305     4.3428318213
 H     -5.6380666538    -1.3210222518     0.2252695342
 F     -4.8077649159    -0.9369031116     0.2880430167
          12
Energy: -46.101284030118364 Kcal/mole
 H     -4.3440462385    -0.3165070395     1.7510099833
 F     -4.1655847704    -0.0788659723     2.6185163104
 H     -7.1951375097    -2.7666953508     0.9401992807
 F     -7.1107649837    -2.0673092346     0.3531478883
 H     -5.6620832268    -2.7025922895     4.4985116755
 F     -6.5013430608    -3.0677386348     4.4419424474
 H     -6.9807507225    -3.6781008915     2.9833163080
 F     -7.1685404985    -3.9204595747     2.1190904875
 H     -4.1050543966    -1.2656818565     3.7759380567
 F     -4.1795294661    -1.9826922188     4.3427172063
 H     -5.6391999623    -1.3182664539     0.2234974733
 F     -4.8077047965    -0.9370493003     0.2881370204
          12
Energy: -46.09912195140669 Kcal/mole
 H     -4.3427501145    -0.3163850342     1.7507110088
 F     -4.1656535268    -0.0788724444     2.6185321703
 H     -7.2010974617    -2.7649860662     0.9413434113
 F     -7.1104488220    -2.0673999082     0.3530871948
 H     -5.6629268402    -2.7003429122     4.4964133971
 F     -6.5012983090    -3.0678579591     4.4420537563
 H     -6.9793877390    -3.6826203349     2.9842734155
 F     -7.1686128016    -3.9202198287     2.1190397152
 H     -4.1036769097    -1.2633584121     3.7790742737
 F     -4.1796025386    -1.9828154722     4.3425508372
 H     -5.6393365249    -1.3189578462     0.2296434246
 F     -4.8076975522    -0.9370126236     0.2878109919
          12
Energy: -46.0994958386417 Kcal/mole
 H     -4.3421460659    -0.3176843817     1.7509446356
 F     -4.1656855702    -0.0788035170     2.6185197769
 H     -7.2013632556    -2.7697473153     0.9356064935
 F     -7.1104347222    -2.0671473349     0.3533915250
 H     -5.6625941097    -2.7007021402     4.4936332871
 F     -6.5013159596    -3.0678389028     4.4422012347
 H     -6.9829111137    -3.6751499416     2.9829499661
 F     -7.1684258947    -3.9206161158     2.1191099211
 H     -4.1012039547    -1.2665904294     3.7753095131
 F     -4.1797337232    -1.9826440211     4.3427505491
 H     -5.6372640986    -1.3222338623     0.2221666499
 F     -4.8078074896    -0.9368388385     0.2882076175
          12
Energy: -46.10041744955248 Kcal/mole
 H     -4.3470084191    -0.3156314008     1.7513853641
 F     -4.1654276336    -0.0789124229     2.6184963973
 H     -7.1940457045    -2.7731870856     0.9258581465
 F     -7.1058124157    -2.0738905129     0.3392678380
 H     -5.6623890747    -2.7016875155     4.4971841481
 F     -6.5013268362    -3.0677866310     4.4420128697
 H     -6.9786960260    -3.6824867214     2.9840851243
 F     -7.1686494954    -3.9202269166     2.1190497036
 H     -4.1092261655    -1.2627590782     3.7837753087
 F     -4.1820744107    -1.9777293149     4.3533362746
 H     -5.6368406785    -1.3221188474     0.2164403774
 F     -4.8078299510    -0.9368449397     0.2885113830
          12
Energy: -46.100022796628764 Kcal/mole
 H     -4.3479326740    -0.3168546031     1.7519144395
 F     -4.1653786040    -0.0788475349     2.6184683311
 H     -7.1901503788    -2.7721824952     0.9276243552
 F     -7.1060190537    -2.0739438041     0.3391741447
 H     -5.6608464484    -2.7048381803     4.4944446234
 F     -6.5014086690    -3.0676194955     4.4421581952
 H     -6.9803201001    -3.6791933244     2.9835282254
 F     -7.1685633420    -3.9204016237     2.1190792458
 H     -4.0996221376    -1.2624903381     3.7722627570
 F     -4.1732219802    -1.9801730667     4.3383047732
 H     -5.6367085030    -1.3233908116     0.2219536193
 F     -4.8078369627    -0.9367774650     0.2882189183
          12
Energy: -46.09937817062081 Kcal/mole
 H     -4.3414546029    -0.3204034770     1.7515576850
 F     -4.1657222507    -0.0786592753     2.6184872561
 H     -7.1947354218    -2.7737442462     0.9250889522
 F     -7.1057758278    -2.0738609568     0.3393086420
 H     -5.6622355236    -2.7020871549     4.4974984280
 F     -6.5013349818    -3.0677654310     4.4419961979
 H     -6.9805108028    -3.6764856278     2.9828094185
 F     -7.1685532257    -3.9205452607     2.1191173769
 H     -4.1022125579    -1.2623855465     3.7720650898
 F     -4.1730845644    -1.9801786257     4.3383152590
 H     -5.6345275117    -1.3276927881     0.2199876420
 F     -4.8079526592    -0.9365492551     0.2883232088
          12
Energy: -46.100884537012035 Kcal/mole
 H     -4.3448008714    -0.3165976107     1.7511904057
 F     -4.1655447389    -0.0788611677     2.6185067394
 H     -7.1928028606    -2.7724134457     0.9269643551
 F     -7.1058783457    -2.0739315527     0.3392091562
 H     -5.6621139190    -2.7018462315     4.4939526834
 F     -6.5013414326    -3.0677782114     4.4421842914
 H     -6.9826816361    -3.6766209041     2.9833172356
 F     -7.1684380680    -3.9205380846     2.1190904383
 H     -4.1117397840    -1.2603585465     3.7678188633
 F     -4.1832189178    -1.9771513334     4.3352585818
 H     -5.6374787680    -1.3210814639     0.2182698157
 F     -4.8077961019    -0.9368999705     0.2884143356
          12
Energy: -46.10085652808547 Kcal/mole
 H     -4.3517204483    -0.3166380846     1.7513170160
 F     -4.1744452718    -0.0769704256     2.6185089930
 H     -7.1927724561    -2.7706646197     0.9290405355
 F     -7.1058799586    -2.0740243239     0.3390990196
 H     -5.6629803909    -2.6999885468     4.4948175859
 F     -6.5012954683    -3.0678767573     4.4421384104
 H     -6.9809651936    -3.6782315325     2.9833995045
 F     -7.1685291213    -3.9204526445     2.1190860742
 H     -4.1155373248    -1.2608704149     3.7667086688
 F     -4.1830174670    -1.9771241799     4.3353174751
 H     -5.6383668151    -1.3187973079     0.2163366190
 F     -4.8077489930    -0.9370211397     0.2885168872
          12
Energy: -46.099532743309965 Kcal/mole
 H     -4.3505400358    -0.3192553805     1.7518042077
 F     -4.1745078899    -0.0768315841     2.6184831486
 H     -7.1951897680    -2.7703558611     0.9290437909
 F     -7.1057517257    -2.0740407028     0.3390988469
 H     -5.6646793816    -2.6964010595     4.4966115484
 F     -6.5012053408    -3.0680670652     4.4420432448
 H     -6.9792742817    -3.6738632957     2.9817934394
 F     -7.1686188203    -3.9206843694     2.1191712722
 H     -4.1088469825    -1.2578903766     3.7713258981
 F     -4.1833723742    -1.9772822641     4.3350725417
 H     -5.6367026441    -1.3233932926     0.2218948363
 F     -4.8078372735    -0.9367773334     0.2882220366
          12
Energy: -46.10131689555129 Kcal/mole
 H     -4.3521223245    -0.3152157336     1.7510074557
 F     -4.1744239532    -0.0770458780     2.6185254145
 H     -7.1943868774    -2.7720178979     0.9271977191
 F     -7.1057943172    -2.0739525356     0.3391967767
 H     -5.6636856806    -2.6984812414     4.4954828192
 F     -6.5012580543    -3.0679567164     4.4421031213
 H     -6.9803603187    -3.6812293279     2.9841023654
 F     -7.1685612085    -3.9202936184     2.1190487890
 H     -4.1132317496    -1.2580789738     3.7705241699
 F     -4.1831397724    -1.9772722594     4.3351150716
 H     -5.6368786350    -1.3224637562     0.2187609992
 F     -4.8078279375    -0.9368266431     0.2883882794
          12
Energy: -46.09953521662112 Kcal/mole
 H     -4.3537457933    -0.3190364743     1.7524005898
 F     -4.1743378319    -0.0768431966     2.6184515119
 H     -7.1896910232    -2.7767509613     0.9222242591
 F     -7.1060434215    -2.0737014575     0.3394606073
 H     -5.6641011407    -2.6970038817     4.4916043689
 F     -6.5012360151    -3.0680350869     4.4423088641
 H     -6.9835908685    -3.6777416971     2.9838275676
 F     -7.1683898353    -3.9204786292     2.1190633664
 H     -4.1101626620    -1.2594401423     3.7691824788
 F     -4.1833025804    -1.9772000526     4.3351862452
 H     -5.6362756726    -1.3232355672     0.2159243847
 F     -4.8078599233    -0.9367857003     0.2885387553
          12
Energy: -46.09946733330486 Kcal/mole
 H     -4.3460186303    -0.3199557017     1.7510947741
 F     -4.1747477401    -0.0767944337     2.6185207824
 H     -7.1944119584    -2.7704955919     0.9289962256
 F     -7.1057929868    -2.0740332904     0.3391013701
 H     -5.6620638294    -2.7026054964     4.4983087573
 F     -6.5013440898    -3.0677379342     4.4419532118
 H     -6.9822932967    -3.6760229101     2.9830646412
 F     -7.1684586685    -3.9205698068     2.1191038379
 H     -4.1124598781    -1.2609594982     3.7669705134
 F     -4.1831807184    -1.9771194543     4.3353035848
 H     -5.6374216881    -1.3209170528     0.2167126139
 F     -4.8077991298    -0.9369086922     0.2884969415
          12
Energy: -46.09919274851873 Kcal/mole
 H     -4.3453511969    -0.3150230483     1.7495966463
 F     -4.1747831459    -0.0770560996     2.6186002547
 H     -7.1939404264    -2.7709766766     0.9284984418
 F     -7.1058180004    -2.0740077700     0.3391277764
 H     -5.6650970489    -2.6954850311     4.4967652426
 F     -6.5011831845    -3.0681156584     4.4420350917
 H     -6.9757773573    -3.6775943429     2.9820774187
 F     -7.1688043240    -3.9204864460     2.1191562078
 H     -4.1162298991    -1.2583033892     3.7698758915
 F     -4.1829807275    -1.9772603547     4.3351494612
 H     -5.6312366374    -1.3311288010     0.2152481045
 F     -4.7990230982    -0.9523044640     0.2845427430
          12
Energy: -46.100242712744375 Kcal/mole
 H     -4.3508253838    -0.3219135027     1.7526104207
 F     -4.1744927529    -0.0766905769     2.6184403809
 H     -7.1908967342    -2.7724772090     0.9271671857
 F     -7.1059794613    -2.0739281702     0.3391983965
 H     -5.6627804039    -2.7004969432     4.4951811866
 F     -6.5013060771    -3.0678497881     4.4421191222
 H     -6.9803470948    -3.6780750296     2.9832212450
 F     -7.1685619100    -3.9204609466     2.1190955304
 H     -4.1132473367    -1.2616725599     3.7659759541
 F     -4.1831389456    -1.9770816280     4.3353563439
 H     -5.6302500525    -1.3333409664     0.2155382607
 F     -4.7990754343    -0.9521871137     0.2845273509
          12
Energy: -46.099980848304114 Kcal/mole
 H     -4.3519645850    -0.3180751196     1.7517654920
 F     -4.1744323209    -0.0768941942     2.6184852024
 H     -7.1960943825    -2.7731122648     0.9256353699
 F     -7.1057037380    -2.0738944819     0.3392796558
 H     -5.6627787958    -2.7002427350     4.4933624049
 F     -6.5013061624    -3.0678632732     4.4422156043
 H     -6.9789269449    -3.6788450270     2.9831263102
 F     -7.1686372457    -3.9204201001     2.1191005665
 H     -4.1154134620    -1.2591396256     3.7689108532
 F     -4.1830240376    -1.9772159943     4.3352006543
 H     -5.6311994731    -1.3317305609     0.2181586386
 F     -4.7990250697    -0.9522725420     0.2843883459
          12
Energy: -46.0995498044019 Kcal/mole
 H     -4.3460702957    -0.3208377276     1.7513527436
 F     -4.1747449993    -0.0767476443     2.6185070978
 H     -7.1975981104    -2.7705375200     0.9284587519
 F     -7.1056239688    -2.0740310662     0.3391298819
 H     -5.6621859696    -2.7026708179     4.5005056916
 F     -6.5013376105    -3.0677344690     4.4418366695
 H     -6.9791157156    -3.6779846110     2.9829266948
 F     -7.1686272318    -3.9204657431     2.1191111556
 H     -4.1161940772    -1.2571859941     3.7713043726
 F     -4.1829826278    -1.9773196300     4.3350736836
 H     -5.6306561191    -1.3329625934     0.2184051431
 F     -4.7990538934    -0.9522071855     0.2843752694
          12
Energy: -46.101392361237004 Kcal/mole
 H     -4.3472008961    -0.3182289776     1.7508468607
 F     -4.1746850236    -0.0768860324     2.6185339337
 H     -7.1925058340    -2.7736040901     0.9255902939
 F     -7.1058941023    -2.0738683918     0.3392820469
 H     -5.6636360528    -2.6985394809     4.4951057704
 F     -6.5012606869    -3.0679536269     4.4421231228
 H     -6.9798796940    -3.6780433952     2.9831104260
 F     -7.1685867045    -3.9204626248     2.1191014091
 H     -4.1121357515    -1.2605042812     3.7722401686
 F     -4.1817388641    -1.9779005637     4.3391501971
 H     -5.6301472724    -1.3339199189     0.2175315582
 F     -4.7990808865    -0.9521564016     0.2844216111
          12
Energy: -46.10106634359096 Kcal/mole
 H     -4.3477695851    -0.3203467515     1.7515521972
 F     -4.1746548560    -0.0767736894     2.6184965172
 H     -7.1944029333    -2.7739380946     0.9249076752
 F     -7.1057934655    -2.0738506736     0.3393182583
 H     -5.6620527914    -2.7021042175     4.4947777032
 F     -6.5013446753    -3.0677645259     4.4421405260
 H     -6.9814016706    -3.6777913132     2.9833706193
 F     -7.1685059672    -3.9204759971     2.1190876065
 H     -4.1114251359    -1.2625987815     3.7696875251
 F     -4.1817765606    -1.9777894553     4.3392856089
 H     -5.6293192634    -1.3347129331     0.2120195642
 F     -4.7991248105    -0.9521143341     0.2847140096
          12
Energy: -46.101408846585485 Kcal/mole
 H     -4.3508855081    -0.3162601303     1.7510424336
 F     -4.1744895634    -0.0769904752     2.6185235590
 H     -7.1927316678    -2.7740374034     0.9250393035
 F     -7.1058821223    -2.0738454055     0.3393112757
 H     -5.6618002747    -2.7029895187     4.4968499481
 F     -6.5013580707    -3.0677175627     4.4420305982
 H     -6.9818618511    -3.6785865668     2.9836929656
 F     -7.1684815557    -3.9204338108     2.1190705067
 H     -4.1106770195    -1.2620265889     3.7704998037
 F     -4.1818162465    -1.9778198088     4.3392425194
 H     -5.6331087616    -1.3266722774     0.2123615113
 F     -4.8044351258    -0.9405748730     0.2839003093
          12
Energy: -46.10088387548464 Kcal/mole
 H     -4.3517874510    -0.3206056595     1.7524375627
 F     -4.1744417175    -0.0767599549     2.6184495506
 H     -7.1965310778    -2.7701977489     0.9290254352
 F     -7.1056805724    -2.0740490903     0.3390998206
 H     -5.6649750546    -2.6960269046     4.4985570886
 F     -6.5011896560    -3.0680869133     4.4419400384
 H     -6.9814717151    -3.6817017337     2.9844737420
 F     -7.1685022515    -3.9202685584     2.1190290883
 H     -4.1105612772    -1.2613685049     3.7713435874
 F     -4.1818223863    -1.9778547187     4.3391977587
 H     -5.6337556311    -1.3256460492     0.2143560814
 F     -4.8044008109    -0.9406293120     0.2837945020
          12
Energy: -46.10022071881983 Kcal/mole
 H     -4.3467082366    -0.3148360112     1.7498129534
 F     -4.1747111580    -0.0770660214     2.6185887801
 H     -7.1953076975    -2.7708125460     0.9284864088
 F     -7.1057454699    -2.0740164767     0.3391284147
 H     -5.6614139031    -2.7042737131     4.4993971727
 F     -6.5013785669    -3.0676494392     4.4418954739
 H     -6.9792821970    -3.6797359114     2.9834527704
 F     -7.1686184004    -3.9203728407     2.1190832485
 H     -4.1118031668    -1.2578024288     3.7757181785
 F     -4.1817565070    -1.9780438908     4.3389656967
 H     -5.6331975129    -1.3262604137     0.2111783340
 F     -4.8044304177    -0.9405967214     0.2839630741
          12
Energy: -46.09992362041777 Kcal/mole
 H     -4.3519396521    -0.3183269687     1.7518305081
 F     -4.1744336435    -0.0768808342     2.6184817534
 H     -7.1918414295    -2.7708410140     0.9289685628
 F     -7.1059293474    -2.0740149666     0.3391028376
 H     -5.6654068808    -2.6943184685     4.4934351449
 F     -6.5011667486    -3.0681775419     4.4422117457
 H     -6.9803902619    -3.6808297931     2.9839983610
 F     -7.1685596201    -3.9203148128     2.1190543062
 H     -4.1147423498    -1.2611451172     3.7711170574
 F     -4.1816005901    -1.9778665689     4.3392097756
 H     -5.6342527504    -1.3252614393     0.2182807860
 F     -4.8043744398    -0.9406497147     0.2835863055
          12
Energy: -46.10159793845733 Kcal/mole
 H     -4.3501347901    -0.3159892699     1.7508154894
 F     -4.1745293873    -0.0770048437     2.6185355978