          4
Energy: -1.901912865920794 Kcal/mole
 Kr    -2.7389429848    -2.2901467059    -3.1799666395
 Kr    -3.6921248217    -6.0777059858    -2.0412463456
 Kr    -0.0823643953    -5.3152725220    -3.7571416817
 Kr    -3.4887510138    -5.1277881500    -5.9925095262
