          4
Energy: -0.06084068199879264 Kcal/mole
 Kr     0.6880403352    -0.8412475828    -3.8054523744
 Kr     2.0238537327     1.4230002481     4.3686147651
 Kr    -2.6886973551     4.6307161473    -0.2695628405
 Kr    -4.0945927513    -4.0860427609     3.2155583120
