          4
Energy: -1.901654454649268 Kcal/mole
 Kr    -0.7726718298    -5.2025924747     4.5295518120
 Kr     2.1176429785    -3.0422643308     6.4097151713
 Kr    -0.7641899398    -1.1334711777     4.2954563127
 Kr     2.0753468965    -3.3086293251     2.3513033280
