          4
Energy: -1.0597430975510522 Kcal/mole
 Kr    -6.0699739509    -1.6178900352    -4.4319801022
 Kr    -6.9124810955    -3.4746803042    -0.7269077044
 Kr    -4.3325630480     0.7808968035    -1.0260532581
 Kr    -5.6478029158     3.6536646813    -4.4357573810
          4
Energy: -1.016189085574481 Kcal/mole
 Kr     1.3209901710     4.1190469470    -4.9486518671
 Kr     1.0313671421    -2.6918182896     2.4735567745
 Kr    -0.8576392754    -0.7048967350    -0.6503617418
 Kr     2.0596733797     1.9978765949    -1.6394402736
          4
Energy: -0.35153707659365363 Kcal/mole
 Kr     7.1420129047     4.4090131741    -3.2129009455
 Kr     1.1461518482    -5.3661672286    -2.5436753657
 Kr    -0.5816656430    -2.5099031757     3.2897274491
 Kr    -0.4975496764    -5.9097496459     5.7037824389
          4
Energy: -0.2995816532383234 Kcal/mole
 Kr     1.1912479199    -2.2264820695     1.6968648447
 Kr     0.3896017220    -4.2674521443     4.9141128687
 Kr    -0.9439654032     4.9604580223    -5.0263297872
 Kr    -7.1158267592     5.3644786922     1.3013344113
          4
Energy: -1.503000050895423 Kcal/mole
 Kr     0.8008150073     2.9317365642     3.6415895915
 Kr    -0.0051764059    -1.7457646737    -0.4977728251
 Kr     0.4776660424     2.1330287284    -0.0343370054
 Kr    -1.9062696415     0.1388006813     2.4597728008
          4
Energy: -1.6808885142383194 Kcal/mole
 Kr     1.2189969856    -3.9030045989     2.2837535822
 Kr    -0.1467734209    -1.5862681516    -1.4105457525
 Kr    -2.8680370955    -2.5533808115     1.9363332882
 Kr     0.3857312178     0.1506536907     1.9904281957
          4
Energy: -1.8211460023467752 Kcal/mole
 Kr    -2.9035027599    -3.3053060091     6.5772887189
 Kr    -1.7218099800     0.2792342304     5.0938238301
 Kr    -5.7293962695    -1.1912163899     4.3384525744
 Kr    -2.1641649533    -2.9316746124     2.5308857003
          4
Energy: -1.8693172278155807 Kcal/mole
 Kr     1.4370896534    -4.4219006737     2.2739082467
 Kr    -0.2482725030    -3.0358608526     5.9001111180
 Kr    -2.4753555617    -4.4111593872     2.8453711589
 Kr    -0.5864190013    -0.8266716432     2.4067544197
          4
Energy: -1.8866313534357646 Kcal/mole
 Kr    -0.8300499031    -5.1918901567     4.5001109328
 Kr     2.0512715194    -3.2159248211     6.4116386060
 Kr    -0.7342195786    -1.1544803761     4.3023770721
 Kr     2.0789214600    -3.3421045671     2.4319681581
          4
Energy: -1.901654454649268 Kcal/mole
 Kr    -0.7726718298    -5.2025924747     4.5295518120
 Kr     2.1176429785    -3.0422643308     6.4097151713
 Kr    -0.7641899398    -1.1334711777     4.2954563127
 Kr     2.0753468965    -3.3086293251     2.3513033280
