          4
Energy: -0.048527017443192516 Kcal/mole
 Kr     0.9431639374     7.4036554398    -6.9921142984
 Kr     0.0785728912     6.4337929704    -0.1635007839
 Kr    -1.6221404787    -4.6567083278     7.3576246391
 Kr    -4.4259557004     4.4920245092     5.1829225719
          4
Energy: -0.2693306793052588 Kcal/mole
 Kr     2.2779891909     0.9544225497    -4.2007910960
 Kr    -2.2553460519    -4.3767908385     0.7643184066
 Kr    -2.3847555468    -1.7288120049     3.5091086870
 Kr     7.2051218566    -5.1074171358     1.0725269624
          4
Energy: -0.5146430372793342 Kcal/mole
 Kr    -0.3091523759    -0.6965332990     4.3740673671
 Kr    -7.2330585315    -2.4453964248     1.5284951072
 Kr     3.1007440975    -0.3796899497     6.5172262643
 Kr    -7.3112066236    -3.3273856992     6.3793169652
          4
Energy: -0.10363142202626845 Kcal/mole
 Kr    -6.2927579193     2.5669685601    -1.9825014976
 Kr    -5.2997610524    -3.5855079446     0.7516674622
 Kr    -3.7744783314     6.3253759193     1.7167768100
 Kr     1.0483633256    -6.8166425572    -5.6703756756
          4
Energy: -0.8863453124441479 Kcal/mole
 Kr    -0.1397372787     3.5765837724    -0.6167723541
 Kr     1.3434122321    -1.4204870174    -0.3795260859
 Kr     5.7447828895    -2.5012299045    -1.2721894928
 Kr     1.8195166105     0.8250404296     2.8400959084
          4
Energy: -1.075107864379625 Kcal/mole
 Kr    -3.2728648660     4.9909009563    -7.3156493050
 Kr    -6.9719588261     2.5493395803    -4.4494264100
 Kr    -4.3274129741    -0.3965662932    -2.7523467276
 Kr    -6.2096492433    -1.2107542797    -6.2033699340
          4
Energy: -1.7707632352235738 Kcal/mole
 Kr    -2.7477692170    -3.6002342945    -4.7746001517
 Kr    -0.9406402837     0.3782851180    -6.0213488209
 Kr    -3.5345389643     0.0943274136    -3.1814982475
 Kr     0.0559845339    -1.5588709875    -2.4878853133
          4
Energy: -1.5215339757338788 Kcal/mole
 Kr    -2.5444755116    -4.4612566666    -1.8166456415
 Kr    -5.8054478988    -7.1708001133    -2.4471493329
 Kr    -4.4793614254    -5.3227161558    -5.4716139790
 Kr    -6.8707742861    -3.5793071531    -1.3005024399
          4
Energy: -1.774236276327755 Kcal/mole
 Kr    -2.7978417751    -1.9971144421    -3.0628647299
 Kr    -3.7491297501    -6.0273742497    -2.0530428900
 Kr    -0.0626852900    -5.4631403787    -3.4886022173
 Kr    -3.0434821420    -5.1570818522    -6.0055700790
          4
Energy: -1.901912865920794 Kcal/mole
 Kr    -2.7389429848    -2.2901467059    -3.1799666395
 Kr    -3.6921248217    -6.0777059858    -2.0412463456
 Kr    -0.0823643953    -5.3152725220    -3.7571416817
 Kr    -3.4887510138    -5.1277881500    -5.9925095262
