          4
Energy: -1.9017576931598283 Kcal/mole
 Kr     5.0590043932    -0.5544825486     2.6901056087
 Kr     5.8473973113     0.2236930364     6.5948835979
 Kr     2.0828044820    -0.7759297770     5.4435839934
 Kr     3.6198933397     2.8328435519     4.4024804230
