          4
Energy: -1.9017947813400446 Kcal/mole
 Kr     5.1826388027     7.1046994092    -3.0812163026
 Kr     2.1609030080     5.5194830060    -5.2955060052
 Kr     5.5062164355     3.3139941493    -4.5373751861
 Kr     5.6948254556     6.5006712373    -7.0738561236
