          32
Energy: -130.3770162995188 Kcal/mole
 H     -1.4878028039     6.7201024056     1.0176056831
 F     -1.0542381579     6.2212882208     0.3819209289
 H     -3.6313095970     4.0899851754     1.7334837317
 F     -3.6882154601     4.9982576233     1.6208254741
 H     -1.1781151381     3.6339277955     4.2988821557
 F     -0.9219433855     2.7647447802     4.1582197257
 H     -1.2540409678     7.6287443123     2.9238636842
 F     -1.9942972897     7.4827754148     2.4027085644
 H     -1.0283830106     0.5605201001     2.1887440247
 F     -1.8572511842     0.6705345553     1.8122292569
 H      0.5476046060     3.1620884457     1.3672481571
 F      1.3256053688     2.7047826986     1.5299603776
 H     -2.5152233836     5.4527242053     4.4678359499
 F     -1.6365208590     5.2083223111     4.5629074355
 H      0.9666987441     1.2571718077     2.2718333636
 F      0.5447712652     0.5709090529     2.7099082817
 H     -1.0375638779     4.6365431252     0.7914104862
 F     -0.9757059879     3.7762683894     1.1028426305
 H     -4.0558483855     5.6105795010     3.1370936614
 F     -4.0633995322     5.7470566368     4.0438494011
 H      3.4305271998     3.4707405394     3.4620862240
 F      3.4479495083     4.3720747784     3.2942111130
 H      2.4516773763     1.8249764914     4.5355456904
 F      3.1170084012     1.9012151568     3.9091182859
 H      0.5773365184     6.7851133312     3.5664394678
 F      0.2227496359     7.6259060678     3.6571296930
 H      0.3551573618     2.2139462829     5.0786911236
 F      1.1311325167     2.0152193764     5.5250756837
 H     -2.9665224784     1.8808023615     2.1422118228
 F     -3.6032442818     2.5204512983     2.3044572627
 H      1.9288018228     4.9562799876     3.1466267508
 F      1.0534845058     5.2295878617     3.1432502897
