          32
Energy: -130.3021227002696 Kcal/mole
 H     -1.5105900377     6.7085935160     1.0804092493
 F     -1.0524311327     6.2330380392     0.4441495490
 H     -3.6399903692     4.1094594758     1.7362084849
 F     -3.6920000472     5.0184797541     1.6272767306
 H     -1.2279561673     3.6055573222     4.3024539979
 F     -0.9727566735     2.7367884015     4.1575306364
 H     -1.3042698208     7.6000144878     3.0056915568
 F     -2.0452363596     7.4485493752     2.4871205317
 H     -1.0504153427     0.5587702672     2.1944137980
 F     -1.8785047689     0.6839132075     1.8209219685
 H      0.5126562427     3.1460893062     1.3385189998
 F      1.2985986685     2.7029830369     1.5023492093
 H     -2.5524229801     5.4159529157     4.4818408138
 F     -1.6737481408     5.1761776441     4.5882708181
 H      0.9469504538     1.2543185700     2.2765792613
 F      0.5274783946     0.5654865757     2.7129766435
 H     -1.0468552960     4.6330862610     0.7915813505
 F     -1.0121089909     3.7586152382     1.0654099912
 H     -4.0884645297     5.5952746060     3.1525565600
 F     -4.1159239282     5.6880324733     4.0644397540
 H      3.3926888802     3.4857483718     3.4337253679
 F      3.3990109537     4.3814824158     3.2374868554
 H      2.4230925481     1.8346916012     4.5282916318
 F      3.0894284416     1.9299455131     3.9055459620
 H      0.5216497481     6.7513239486     3.5969398390
 F      0.1723710272     7.5894796861     3.7249567713
 H      0.3095599188     2.1971532488     5.0771059183
 F      1.0875863373     2.0021779592     5.5215702348
 H     -2.9784870576     1.8908274721     2.1504459564
 F     -3.6189730863     2.5311485007     2.2941666140
 H      1.8757507472     4.9501740877     3.1181445142
 F      0.9962716954     5.2089642609     3.1389590168
          32
Energy: -130.30210380115568 Kcal/mole
 H     -1.5141315747     6.6984201590     1.0853466603
 F     -1.0522432624     6.2335777123     0.4438876307
 H     -3.6297394391     4.1099938167     1.7352595114
 F     -3.6925438354     5.0184514086     1.6273270714
 H     -1.2219046294     3.6069582160     4.3045561746
 F     -0.9730776936     2.7367140873     4.1574191208
 H     -1.2975116628     7.5828104055     2.9929338049
 F     -2.0457824530     7.4451104027     2.4810563453
 H     -1.0493148067     0.5703245112     2.1956530548
 F     -1.8785631498     0.6833002815     1.8208562288
 H      0.5062863422     3.1542666527     1.3347930602
 F      1.2875255389     2.7016255873     1.4950128574
 H     -2.5525235672     5.4197647117     4.4918237736
 F     -1.6737428049     5.1759754371     4.5877412452
 H      0.9459758128     1.2461923993     2.2631151950
 F      0.5275300971     0.5659176503     2.7136908811
 H     -1.0579367803     4.6327759173     0.7922335301
 F     -1.0115211438     3.7586317012     1.0653753946
 H     -4.0967180401     5.5765637608     3.1544548731
 F     -4.1154860986     5.6890250404     4.0643390529
 H      3.3830334344     3.4866530905     3.4372580906
 F      3.3995231528     4.3814344226     3.2372994526
 H      2.4067755225     1.8462938476     4.5442553918
 F      3.0785160983     1.9293841324     3.9255877886
 H      0.5274022924     6.7507681226     3.6182854451
 F      0.1720658680     7.5895091714     3.7238244363
 H      0.3001895586     2.1827176547     5.0876588251
 F      1.0880834132     2.0029437341     5.5210104275
 H     -2.9896785377     1.8836201785     2.1298651130
 F     -3.6213494331     2.5304488851     2.2831410222
 H      1.8736071638     4.9424251411     3.1280147827
 F      0.9963854075     5.2093753246     3.1384354219
          32
Energy: -130.31074600621162 Kcal/mole
 H     -1.4970074967     6.7147515013     1.0853826476
 F     -1.0531516552     6.2327113723     0.4438857217
 H     -3.6367684396     4.1085001186     1.7261176701
 F     -3.6921709631     5.0185306458     1.6278120250
 H     -1.2242408975     3.6071462830     4.2993772961
 F     -0.9729537600     2.7367041108     4.1576938483
 H     -1.2872575481     7.6077108788     2.9783214291
 F     -2.0293658915     7.4652669623     2.4588275049
 H     -1.0514757203     0.5727736954     2.2011154943
 F     -1.8784485183     0.6831703580     1.8205664590
 H      0.4992891718     3.1379065239     1.3177555024
 F      1.2851036569     2.7047648054     1.5068926133
 H     -2.5534801537     5.4181403964     4.4966043773
 F     -1.6736920602     5.1760616033     4.5874876452
 H      0.9375826972     1.2570184757     2.2719767266
 F      0.5279753325     0.5653433519     2.7132207973
 H     -1.0538497932     4.6343936511     0.7967936296
 F     -1.0117379490     3.7585458842     1.0651334919
 H     -4.0996159023     5.5764409826     3.1570038603
 F     -4.1044788223     5.6891818363     4.0670339982
 H      3.3785177198     3.4850121771     3.4293160116
 F      3.3997627010     4.3815214693     3.2377207615
 H      2.3910795366     1.8576793835     4.5312700194
 F      3.0562401702     1.9284572010     3.9040213988
 H      0.5218677046     6.7491054032     3.6131627090
 F      0.1723594651     7.5895973748     3.7240961856
 H      0.2940954880     2.2092949147     5.0878472673
 F      1.0721850177     2.0111445571     5.5307943516
 H     -2.9820972052     1.8901000032     2.1341690802
 F     -3.6217516052     2.5301051454     2.2829127067
 H      1.8725209187     4.9394806504     3.1177869571
 F      0.9964430303     5.2095315231     3.1389779844
          32
Energy: -130.30137809398835 Kcal/mole
 H     -1.4831679369     6.7249796550     1.0676150707
 F     -1.0327872032     6.2259714681     0.4438867451
 H     -3.6463371166     4.0907486203     1.7363723449
 F     -3.7086763241     4.9986947068     1.6239591460
 H     -1.2207196093     3.6066294679     4.3084450448
 F     -0.9731405562     2.7367315266     4.1572128252
 H     -1.3105552624     7.6311877335     2.9691521749
 F     -2.0422599731     7.4902305569     2.4347101382
 H     -1.0523165818     0.5707873008     2.2023579508
 F     -1.8784039126     0.6832757316     1.8205005496
 H      0.4964721383     3.1375446394     1.3290055669
 F      1.2852530940     2.7047840025     1.5062958234
 H     -2.5560193169     5.4040085261     4.4854568453
 F     -1.6735573634     5.1768112663     4.5880789960
 H      0.9463578110     1.2536791937     2.2750042892
 F      0.5275098330     0.5655204931     2.7130601921
 H     -1.0564301533     4.6365861515     0.8044936207
 F     -1.0116010669     3.7584295771     1.0647250251
 H     -4.0898654637     5.5804780480     3.1566203447
 F     -4.1049960606     5.6889676793     4.0670543428
 H      3.3832822993     3.4860022323     3.4343424698
 F      3.3995099511     4.3814689491     3.2374541196
 H      2.3875775600     1.8365199084     4.5247469336
 F      3.0564259420     1.9295796623     3.9043674334
 H      0.5300861400     6.7533713988     3.6073041738
 F      0.1719234961     7.5893710736     3.7244069673
 H      0.2954151906     2.1755933842     5.0939976953
 F      1.0776288129     1.9793211454     5.5304699824
 H     -2.9672842864     1.8881694328     2.1777093205
 F     -3.6043209339     2.5282588430     2.3369539649
 H      1.8731888626     4.9325434765     3.1085423876
 F      0.9975400940     5.2043724326     3.1239453930
          32
Energy: -130.28297602654663 Kcal/mole
 H     -1.4912100640     6.7214084670     1.0645920445
 F     -1.0323605869     6.2261609114     0.4440471097
 H     -3.6328949490     4.0969970990     1.7377222558
 F     -3.6821705426     5.0069427812     1.6354492317
 H     -1.2282718282     3.6051870145     4.3041072272
 F     -0.9727399284     2.7368080455     4.1574429364
 H     -1.3055907440     7.6258992937     2.9636686003
 F     -2.0425233293     7.4905110964     2.4350010291
 H     -1.0506929146     0.5573500977     2.1945503949
 F     -1.8784900444     0.6839885442     1.8209147224
 H      0.5071190559     3.1538985643     1.3228011747
 F      1.2846882997     2.7039164646     1.5066249521
 H     -2.5518428322     5.4270607219     4.5054440255
 F     -1.6737789163     5.1755884006     4.5870187223
 H      0.9477159682     1.2476594769     2.2669696563
 F      0.5274377859     0.5658398252     2.7134864108
 H     -1.0546912207     4.6351271715     0.7993349696
 F     -1.0116933132     3.7585069726     1.0649986796
 H     -4.0866098355     5.5861517047     3.1560233152
 F     -4.1051687641     5.6886667049     4.0670860139
 H      3.3718730054     3.4850180395     3.4284834055
 F      3.4001151878     4.3815211583     3.2377649294
 H      2.3909006686     1.8426652207     4.5397711972
 F      3.0492763620     1.9301586329     3.9074932923
 H      0.5160258827     6.7518761202     3.5706689570
 F      0.1712850777     7.5899925417     3.7106819615
 H      0.3091183522     2.1772784253     5.0710621350
 F      1.0769018918     1.9792317579     5.5316866609
 H     -2.9855282272     1.9129215695     2.1506679006
 F     -3.6334304126     2.5453418350     2.2961201815
 H      1.8758710066     4.9413114289     3.1091725981
 F      0.9973978124     5.2039073130     3.1239119618
          32
Energy: -130.27188859293142 Kcal/mole
 H     -1.4980327137     6.7369901515     1.0591977139
 F     -1.0309809499     6.2433046668     0.4435466015
 H     -3.6167018976     4.1088894843     1.7386416081
 F     -3.6453442905     5.0185348004     1.6263294878
 H     -1.2352627998     3.6038472870     4.2996045777
 F     -0.9723690735     2.7368791149     4.1576817915
 H     -1.3170979237     7.6168662077     2.9814927132
 F     -2.0419129001     7.4909902808     2.4340555011
 H     -1.0582199571     0.5669307818     2.1735179882
 F     -1.8751848383     0.7008784584     1.7791635754
 H      0.5098470660     3.1586908457     1.3230801133
 F      1.2845435850     2.7036622452     1.5066101550
 H     -2.5550351277     5.4087877083     4.4877228996
 F     -1.6736095724     5.1765577417     4.5879587871
 H      0.9191607230     1.2693104851     2.2794424621
 F      0.5009707320     0.5786566059     2.7141876179
 H     -1.0512800608     4.6315497456     0.7873131685
 F     -1.0118742674     3.7586967468     1.0656364084
 H     -4.0485625357     5.6165863169     3.1406198038
 F     -4.0892437759     5.7164124253     4.0512617668
 H      3.3835819461     3.4813231369     3.4116503688
 F      3.3994940555     4.3817171643     3.2386578831
 H      2.3859920629     1.8476624502     4.5411666883
 F      3.0460430838     1.9359844666     3.9107534340
 H      0.5102989257     6.7501043302     3.6101589594
 F      0.1501346422     7.5835200157     3.7389571895
 H      0.3036589142     2.1882236960     5.0852697894
 F      1.0771915024     1.9786511366     5.5309329776
 H     -2.9966827699     1.9056821268     2.1340925844
 F     -3.6328386899     2.5457258707     2.2969994637
 H      1.8658118202     4.9371314210     3.1163910236
 F      0.9908539757     5.2107195470     3.1384660689
          32
Energy: -130.26663645403946 Kcal/mole
 H     -1.4856252978     6.7319123705     1.0723798677
 F     -1.0316391347     6.2435740313     0.4428473188
 H     -3.6154029202     4.1075106857     1.7264267993
 F     -3.6454131983     5.0186079424     1.6269774552
 H     -1.2441159478     3.5894589632     4.3137670248
 F     -0.9961570649     2.7177071991     4.1742885173
 H     -1.3050889145     7.6157616315     2.9905604024
 F     -2.0335636830     7.4634161271     2.4548325248
 H     -1.0598746745     0.5735420221     2.1601176545
 F     -1.8767940809     0.7101087004     1.7665681330
 H      0.5220630050     3.1669991070     1.3392190744
 F      1.3008635672     2.7148152418     1.5121017990
 H     -2.5469772577     5.4155691088     4.4910018766
 F     -1.6729429772     5.1558798964     4.5885446341
 H      0.9314423110     1.2578287966     2.2734026080
 F      0.5003192221     0.5792656829     2.7145080182
 H     -1.0677689994     4.6397503035     0.7759009292
 F     -1.0004181563     3.7676550819     1.0512239912
 H     -4.0396835825     5.6161278454     3.1411125569
 F     -4.0897147838     5.7164367462     4.0512356273
 H      3.3890106546     3.4803069386     3.4372208189
 F      3.4042236872     4.3775405658     3.2484633505
 H      2.4124164777     1.8285389718     4.5362289498
 F      3.0846761098     1.9130848781     3.9183228269
 H      0.5168764218     6.7499142699     3.6513636957
 F      0.1496740109     7.5829863701     3.7611009515
 H      0.2925373444     2.1702017079     5.0801752441
 F      1.0776993588     2.0072787894     5.5249962572
 H     -2.9936708153     1.9018075404     2.0988562483
 F     -3.6309494513     2.5375951325     2.2736105842
 H      1.8646991025     4.9332155415     3.1219523966
 F      0.9909130028     5.2109272753     3.1381710509
          32
Energy: -130.2998277584004 Kcal/mole
 H     -1.5026711846     6.7255567973     1.0736448535
 F     -1.0552970319     6.2417347629     0.4359446053
 H     -3.6325626382     4.1177437778     1.7194897963
 F     -3.6881677405     5.0266021867     1.6109841970
 H     -1.2410083539     3.5786352489     4.3413798568
 F     -0.9756227233     2.7152300046     4.1832949077
 H     -1.3015219348     7.5888695888     3.0010210205
 F     -2.0329388338     7.4567470773     2.4639344709
 H     -1.0579601148     0.5780346881     2.1587247431
 F     -1.8858076851     0.6843647920     1.7789204392
 H      0.5199596767     3.1621835055     1.3362103398
 F      1.3009751439     2.7150706983     1.5122614054
 H     -2.5434925613     5.4179825954     4.4957743520
 F     -1.6712291385     5.1521914956     4.5927311085
 H      0.9452183913     1.2629447567     2.2619557763
 F      0.5193038343     0.5736912719     2.6913919461
 H     -1.0669126631     4.6439186293     0.7892712619
 F     -1.0004635830     3.7674339619     1.0505147260
 H     -4.0597644848     5.6100290951     3.1369816631
 F     -4.0822308346     5.7233004408     4.0466815397
 H      3.3839136172     3.4838503100     3.4528629688
 F      3.4044940732     4.3773525982     3.2476335706
 H      2.4084234158     1.8505636587     4.5499817866
 F      3.0776999203     1.9331940365     3.9285880458
 H      0.4989098194     6.7448483065     3.6329933821
 F      0.1506270976     7.5832551078     3.7620754542
 H      0.3066253878     2.1813532435     5.0924317867
 F      1.0858663182     1.9895078855     5.5361298045
 H     -2.9956878980     1.8995990301     2.0995639493
 F     -3.6308424497     2.5377122889     2.2735730423
 H      1.8695423810     4.9487837135     3.1253075340
 F      0.9906560780     5.2101014198     3.1379930686
          32
Energy: -130.2880394844115 Kcal/mole
 H     -1.4927619776     6.7227783112     1.0825516723
 F     -1.0558226925     6.2418821551     0.4354721191
 H     -3.6323309201     4.1103339315     1.6923629754
 F     -3.6922456171     5.0214727285     1.6079513549
 H     -1.2261446722     3.5865219311     4.3209208808
 F     -0.9764112073     2.7148116343     4.1843802091
 H     -1.3098453671     7.6163825867     3.0047641751
 F     -2.0324972949     7.4552875763     2.4637359052
 H     -1.0605830814     0.5573706073     2.1648298294
 F     -1.8820614578     0.6897846580     1.7794354906
 H      0.5224414312     3.1392267185     1.3338568375
 F      1.3057104937     2.7001167928     1.5197628591
 H     -2.5458158190     5.4064992719     4.4864166390
 F     -1.6711058951     5.1528006593     4.5932275136
 H      0.9440089702     1.2537301829     2.2603530520
 F      0.5138406741     0.5707059536     2.6954646919
 H     -1.0524613937     4.6410796169     0.7885175496
 F     -1.0024472923     3.7618416708     1.0441114145
 H     -4.0730619941     5.6087161328     3.1369200891
 F     -4.0815254325     5.7233700904     4.0466848060
 H      3.3716170439     3.4886661868     3.4499486948
 F      3.3912036389     4.3858152186     3.2611922910
 H      2.4191037663     1.8514112921     4.5608854077
 F      3.0875919695     1.9373040092     3.9390856302
 H      0.5032102508     6.7466016589     3.6332966607
 F      0.1503989697     7.5831620965     3.7620593660
 H      0.3075872975     2.1718720113     5.0867885261
 F      1.0858152911     1.9900108430     5.5364291665
 H     -2.9852520373     1.9064805147     2.1134796164
 F     -3.6313960480     2.5373472420     2.2728348483
 H      1.8703861108     4.9523051477     3.1156435362
 F      0.9906113201     5.2099146159     3.1385057214
          32
Energy: -130.32549089052833 Kcal/mole
 H     -1.4907540049     6.7330066064     1.0761847011
 F     -1.0559292108     6.2413395677     0.4358098722
 H     -3.6403721377     4.1110069556     1.7040736184
 F     -3.6918190491     5.0214370261     1.6073301323
 H     -1.2440715548     3.5789235697     4.3188205635
 F     -0.9901898602     2.7088319316     4.1796313882
 H     -1.3081733543     7.5976217434     3.0077630345
 F     -2.0325859914     7.4562827957     2.4635768226
 H     -1.0606536241     0.5689460572     2.1687531996
 F     -1.8820577156     0.6891706072     1.7792273649
 H      0.5266069907     3.1501783781     1.3427888896
 F      1.3054895204     2.6995358325     1.5192890344
 H     -2.5454512224     5.4064101607     4.4832687196
 F     -1.6711252361     5.1528053865     4.5933945034
 H      0.9341218609     1.2664135935     2.2709367868
 F      0.5143651624     0.5700331279     2.6949032492
 H     -1.0557886832     4.6420630486     0.8049401877
 F     -0.9918163987     3.7713595145     1.0854253075
 H     -4.0659678767     5.6006132051     3.1380751615
 F     -4.0819017590     5.7237999320     4.0466235321
 H      3.3897270500     3.4934965718     3.4594739001
 F      3.3995177039     4.3908492496     3.2709233372
 H      2.4297009314     1.8430612906     4.5591899206
 F      3.0995472997     1.9321922250     3.9393104812
 H      0.5080667426     6.7491723363     3.6300681181
 F      0.1501413440     7.5830257280     3.7622306327
 H      0.3021180907     2.1703358650     5.0957653514
 F      1.0861054199     1.9900923320     5.5359529666
 H     -2.9941099678     1.8940991252     2.0861419464
 F     -3.6305569770     2.5333989518     2.2508232636
 H      1.8799237116     4.9605627514     3.1281489143
 F      1.0012170798     5.2227559410     3.1324368729
          32
Energy: -130.28697221614755 Kcal/mole
 H     -1.4988791605     6.7266321724     1.0754736475
 F     -1.0554981900     6.2416777167     0.4358475920
 H     -3.6318736294     4.1135004725     1.7210286389
 F     -3.6922698753     5.0213047508     1.6064307077
 H     -1.2437179729     3.5795113276     4.3157539866
 F     -0.9902086169     2.7088007524     4.1797940631
 H     -1.3001155808     7.5895564218     2.9987443499
 F     -2.0360818563     7.4501907524     2.4697643394
 H     -1.0603383007     0.5784141446     2.1708830910
 F     -1.8820744428     0.6886683470     1.7791143791
 H      0.5219534813     3.1415826740     1.3416665968
 F      1.3057363783     2.6999918148     1.5193485694
 H     -2.5498387171     5.3986061484     4.5022338107
 F     -1.6708924896     5.1532193713     4.5923884492
 H      0.9413589660     1.2573935169     2.2635206171
 F      0.5139812507     0.5705116221     2.6952966599
 H     -1.0400589588     4.6486048608     0.7976444864
 F     -0.9864980977     3.7763335422     1.0754267407
 H     -4.0543014886     5.6219692651     3.1357305446
 F     -4.0825206340     5.7226670424     4.0467479086
 H      3.3703738170     3.4942950181     3.4612128028
 F      3.4005443482     4.3908068939     3.2708310924
 H      2.4242482204     1.8379277532     4.5474865440
 F      3.0840326692     1.9287132361     3.9171441947
 H      0.5100243651     6.7488101148     3.6379163365
 F      0.1500374967     7.5830449430     3.7618143029
 H      0.3189748655     2.1731756680     5.0843891613
 F      1.1035379214     1.9922875823     5.5232847204
 H     -3.0099261665     1.8851954070     2.1272562120
 F     -3.6385809614     2.5339979530     2.2845375053
 H      1.8771733567     4.9518436440     3.1456803584
 F      1.0013629798     5.2232184695     3.1315068703
          32
Energy: -130.29818157924524 Kcal/mole
 H     -1.5046158905     6.7174648009     1.0783445184
 F     -1.0551938698     6.2421640246     0.4356952989
 H     -3.6694408106     4.0851773972     1.7157738341
 F     -3.7138077535     4.9955392730     1.6149679345
 H     -1.2178686212     3.5888916344     4.3235825709
 F     -0.9518158504     2.7275830487     4.1554979391
 H     -1.2956586844     7.6030680569     2.9886814293
 F     -2.0363182844     7.4494739914     2.4702981541
 H     -1.0601798834     0.5921298679     2.1847299647
 F     -1.8817773863     0.6990453250     1.7917469775
 H      0.5259215350     3.1521015948     1.3509345096
 F      1.3055258823     2.6994338103     1.5188569281
 H     -2.5455761531     5.4063767556     4.4841877780
 F     -1.6711186088     5.1528071585     4.5933457495
 H      0.9401658263     1.2498562536     2.2506229979
 F      0.5140445440     0.5709114565     2.6959808488
 H     -1.0387889150     4.6466103229     0.7912252052
 F     -0.9865654705     3.7764393478     1.0757672688
 H     -4.0794211695     5.5955550662     3.1386449390
 F     -4.0811880929     5.7240682546     4.0465933067
 H      3.3993337185     3.4857649857     3.4532541080
 F      3.3965024428     4.3872627899     3.2853770911
 H      2.4206564462     1.8211933839     4.5389426075
 F      3.0875728906     1.8936486628     3.9137532851
 H      0.5573481512     6.7608169743     3.5955250269
 F      0.1963373177     7.5974574258     3.6984470027
 H      0.3272503435     2.1801718424     5.0727819737
 F      1.1030989265     1.9919164514     5.5239004549
 H     -2.9981211478     1.8977358060     2.1237447245
 F     -3.6392071903     2.5333327138     2.2847237816
 H      1.8778189183     4.9536109063     3.1360502409
 F      1.0013287342     5.2231247203     3.1320177258
          32
Energy: -130.317765725772 Kcal/mole
 H     -1.5080539859     6.7203718589     1.0737562602
 F     -1.0550114868     6.2420098119     0.4359386954
 H     -3.6696585919     4.1087404816     1.7134483515
 F     -3.7246233197     5.0166078989     1.5966381146
 H     -1.1906560765     3.5915259758     4.2920577598
 F     -0.9309812671     2.7272545149     4.1292915621
 H     -1.2936605116     7.5979473140     2.9873111158
 F     -2.0364242828     7.4497456349     2.4703708461
 H     -1.0515901046     0.5819145260     2.1631285201
 F     -1.8822330542     0.6995872253     1.7928928842
 H      0.5319512545     3.1597612941     1.3480956196
 F      1.3075794227     2.6992405429     1.5130519240
 H     -2.5310580229     5.4060072161     4.4788826841
 F     -1.6524593208     5.1623422768     4.5767638265
 H      0.9414831795     1.2519964447     2.2551781536
 F      0.5139746615     0.5707979244     2.6957392083
 H     -1.0499856878     4.6388010093     0.7970062101
 F     -1.0057293785     3.7688456073     1.0835511064
 H     -4.0715010129     5.5967422567     3.1355211964
 F     -4.0807966397     5.7042297260     4.0461523156
 H      3.3906045707     3.5002770956     3.4887422416
 F      3.3959575040     4.4004448044     3.3139325104
 H      2.4440697680     1.8273798305     4.5475795408
 F      3.1131635268     1.9252039548     3.9281984121
 H      0.5390737578     6.7697206816     3.5960517316
 F      0.1731697991     7.6026572920     3.7110295383
 H      0.3293032865     2.1783244595     5.0685105235
 F      1.1029900226     1.9920144508     5.5241270455
 H     -3.0038749402     1.8932149676     2.1189313406
 F     -3.6389019649     2.5335725339     2.2849791205
 H      1.8808001008     4.9602552259     3.1324849097
 F      1.0049730332     5.2313891894     3.1150975176
          32
Energy: -130.3054474040774 Kcal/mole
 H     -1.5268003395     6.7041806070     1.0674406443
 F     -1.0882978970     6.2271212055     0.4185809250
 H     -3.6626076601     4.1083351722     1.7065405011
 F     -3.7249973553     5.0166293996     1.5970045601
 H     -1.1994150818     3.5886150206     4.2932603708
 F     -0.9305166221     2.7274089343     4.1292277664
 H     -1.3018057752     7.5913506784     2.9911237054
 F     -2.0397457276     7.4266693328     2.4722656505
 H     -1.0598278809     0.5707376465     2.1774905289
 F     -1.8817960592     0.7001801329     1.7921310128
 H      0.5274430089     3.1529084117     1.3503934132
 F      1.3078185748     2.6996040725     1.5129300314
 H     -2.5371427414     5.4072589133     4.4733654653
 F     -1.6633576738     5.1511631514     4.5820099147
 H      0.9313062188     1.2515393282     2.2448474855
 F      0.5145145257     0.5708221733     2.6962872264
 H     -1.0601197052     4.6371786183     0.7938575427
 F     -1.0051917923     3.7689316713     1.0837181359
 H     -4.0831137284     5.6083752239     3.1341867907
 F     -4.0801806120     5.7036126240     4.0462231027
 H      3.3795925508     3.5003518514     3.4884244177
 F      3.3965416662     4.4004408388     3.3139493703
 H      2.4445871311     1.8354760780     4.5493584976
 F      3.1131360819     1.9247744676     3.9281040426
 H      0.5305301259     6.7656442831     3.5988392813
 F      0.1736230190     7.6028735356     3.7108816653
 H      0.3300747427     2.1794554018     5.0676659597
 F      1.1029490986     1.9919544569     5.5241718476
 H     -3.0027630580     1.8932622309     2.1230592719
 F     -3.6389609477     2.5335700266     2.2847601433
 H      1.8852128520     4.9747925356     3.1296699063
 F      1.0047389469     5.2306180187     3.1152468470
          32
Energy: -130.30797774211655 Kcal/mole
 H     -1.5273544649     6.7126622882     1.0607350884
 F     -1.0882685020     6.2266712719     0.4189366392
 H     -3.6572941230     4.0921543692     1.7155639370
 F     -3.7163924572     4.9992308652     1.5946978240
 H     -1.2054246051     3.5877836977     4.2875508084
 F     -0.9301978308     2.7274530341     4.1295306455
 H     -1.3078330360     7.5821377596     3.0023686996
 F     -2.0394259953     7.4271580569     2.4716691295
 H     -1.0597443055     0.5784124057     2.1798024283
 F     -1.8818004927     0.6997730047     1.7920083719
 H      0.5293128498     3.1524663063     1.3405111898
 F      1.3077193840     2.6996275251     1.5134542605
 H     -2.5392881209     5.3972523113     4.4922092001
 F     -1.6619105424     5.1489241475     4.5893210315
 H      0.9367629654     1.2551652795     2.2555362415
 F      0.5142250580     0.5706298250     2.6957202125
 H     -1.0575848859     4.6376892525     0.7949209504
 F     -1.0053262586     3.7689045834     1.0836617246
 H     -4.0737458391     5.5930070221     3.1359502616
 F     -4.0806775569     5.7044278716     4.0461295547
 H      3.3940998225     3.4988647919     3.4813702398
 F      3.3957720889     4.4005197239     3.3143235781
 H      2.4419503891     1.8275018000     4.5453010763
 F      3.1132759550     1.9251974846     3.9283192794
 H      0.5291084702     6.7679167504     3.5791798160
 F      0.1736984346     7.6027529864     3.7119245545
 H      0.3316115379     2.1805730993     5.0655326188
 F      1.1028675752     1.9918951657     5.5242850164
 H     -2.9972582398     1.9001231946     2.1178882686
 F     -3.6392529656     2.5332060684     2.2850344531
 H      1.8842355749     4.9663074473     3.1377876160
 F      1.0064547228     5.2300322609     3.1088221490
          32
Energy: -130.29918721927623 Kcal/mole
 H     -1.5290159779     6.7062444527     1.0644110218
 F     -1.0881803626     6.2270117233     0.4187416395
 H     -3.6536870534     4.0919448643     1.7121193849
 F     -3.7165838039     4.9992419790     1.5948805495
 H     -1.2023424668     3.5902483104     4.3064393505
 F     -0.9225402363     2.7339607496     4.1350587071
 H     -1.3022092429     7.5838050223     2.9940259720
 F     -2.0397243245     7.4270696125     2.4721116920
 H     -1.0705738595     0.5534088886     2.1778165825
 F     -1.8959650867     0.6708923389     1.7959580211
 H      0.5301047322     3.1568605211     1.3487186855
 F      1.3076773765     2.6993944222     1.5130188718
 H     -2.5402122169     5.3889444622     4.4804432714
 F     -1.6618615212     5.1493648597     4.5899451868
 H      0.9325158647     1.2540775383     2.2498297809
 F      0.5144503568     0.5706875271     2.6960229271
 H     -1.0587199631     4.6349213979     0.7869309915
 F     -1.0052660454     3.7690514117     1.0840855734
 H     -4.0723284099     5.5772556201     3.1189525825
 F     -4.0848466017     5.6820498850     4.0298589755
 H      3.4184315579     3.4942475251     3.4914645372
 F      3.4156817623     4.3945017959     3.3170406667
 H      2.4410640734     1.8281294527     4.5621406917
 F      3.1195676329     1.9193079289     3.9520518415
 H      0.5352716355     6.7703731152     3.5804135110
 F      0.1733714929     7.6026226819     3.7118591098
 H      0.3355235716     2.1892804108     5.0626509936
 F      1.1026600508     1.9914332629     5.5244378800
 H     -3.0062168702     1.8943041147     2.1063016354
 F     -3.6387777310     2.5335147571     2.2856490972
 H      1.8890216612     4.9581209202     3.0948523698
 F      1.0147923791     5.2346236231     3.0822659656
          32
Energy: -130.29186303602756 Kcal/mole
 H     -1.5330686842     6.7097016620     1.0590312330
 F     -1.0879653758     6.2268283263     0.4190270248
 H     -3.6647580104     4.0904159033     1.7054666141
 F     -3.7159965152     4.9993230868     1.5952334636
 H     -1.2137601199     3.5831227789     4.3215333526
 F     -0.9570971019     2.7163439661     4.1675606770
 H     -1.2952212081     7.5645774112     2.9894823691
 F     -2.0400950236     7.4280895928     2.4723527196
 H     -1.0615799215     0.5688006966     2.1806391689
 F     -1.8898874014     0.6744953394     1.8016611204
 H      0.5338420087     3.1623505552     1.3464750767
 F      1.3074791226     2.6991031886     1.5131378901
 H     -2.5417684686     5.3871079342     4.4893146138
 F     -1.6617789657     5.1494622833     4.5894745826
 H      0.9389063193     1.2552427743     2.2577254207
 F      0.5141113580     0.5706257141     2.6956040816
 H     -1.0418163613     4.6237147564     0.7695117092