          30
Energy: -122.31697656472765 Kcal/mole
 H     -0.0915883273    -1.4540006684    -3.8181519323
 F     -0.9511428804    -1.2927184795    -4.0939109318
 H      1.2287223218     3.6329031494    -2.0472968355
 F      0.7638210633     3.0333082480    -2.5623131208
 H     -0.3388395500     2.8501875248     0.0778095493
 F      0.2818880704     2.2184047075     0.3153736313
 H      3.2796205058    -0.0300144455    -0.6542492079
 F      2.7340880546     0.4938946271    -0.1357874173
 H      0.1776721362    -1.3204602748    -0.6898444345
 F      0.3898012297    -2.1664234887    -0.4065839743
 H      1.8321808154    -2.9114634386    -0.8023859911
 F      2.6818315827    -3.1898050325    -1.0061224157
 H     -1.8282691534     3.5058505199    -1.3646060849
 F     -1.4748951584     3.8309328383    -0.5833652092
 H      3.2356170852     2.0202110795     0.3356672690
 F      3.4952997403     2.8911998345     0.4574560501
 H     -1.0616277352     0.3365271636    -4.2359958216
 F     -0.9582722638     1.2472655388    -4.2636048481
 H      2.6395311843     4.0064766667    -0.4161760596
 F      2.1377660090     4.5066085531    -0.9984035109
 H      0.0604453556     0.8953560702    -0.6412785035
 F     -0.1386982206     0.2248302592    -1.2342590873
 H      3.6433914947    -1.9244139240    -1.4665692709
 F      4.0605604072    -1.1164585798    -1.5851747521
 H     -1.8822765596     2.2285854718    -3.2779217530
 F     -2.4093863680     2.7134442595    -2.7052471457
 H      1.6779707726     1.7573023704    -3.1429261159
 F      2.2635363872     1.0744344258    -3.3209521846
 H      1.8195377059    -0.5235446072    -3.3008142686
 F      1.4710090626    -1.3700880867    -3.2480798186
