          30
Energy: -121.33864669992579 Kcal/mole
 H      0.3133419181    -1.7885127973    -2.3938187825
 F     -0.3363757678    -2.4326802903    -2.3321408315
 H     -1.2520237717     1.7512487112     1.4911965703
 F     -1.4606043746     0.9200655068     1.1648262089
 H     -0.0345279837     0.0960247469     3.5598998865
 F      0.7699453068     0.4064646398     3.2479082234
 H      3.1172050948     1.5060224334    -1.4845105556
 F      2.4376902487     2.0744380958    -1.2477570788
 H      2.0123376317    -1.7977462754     0.4116061469
 F      2.3880444928    -2.5633200194     0.0745153622
 H      3.3917351806    -2.3621189114    -1.2224534705
 F      3.9245734533    -2.1006897927    -1.9214722048
 H     -1.7508469545    -1.1664599782     3.2709208751
 F     -1.4870627617    -0.5824688414     3.9268638999
 H      2.0887016824     2.4871945735     0.3283831910
 F      1.8679612331     2.6739536212     1.1986036872
 H     -1.4162115940    -1.9862754060    -1.1797853335
 F     -1.9106429378    -1.6070821893    -0.5070007092
 H      0.3367155441     3.1232633333     1.7027499262
 F     -0.5611295672     3.1959795387     1.8744342575
 H      1.1810923200    -0.0615005290     1.7229427773
 F      1.3167230083    -0.3548767896     0.8647914584
 H      4.2089549254    -0.4720084133    -1.9226086686
 F      4.3434774504     0.4267115686    -1.7997466147
 H     -1.9897415154    -2.0228903892     1.1109436566
 F     -1.9518822570    -2.2420015097     2.0005761613
 H     -0.8988056807     0.9354835685    -0.4151775787
 F     -0.4765483036     1.1142224299    -1.2093061117
 H      0.8113777026     0.2008713184    -1.8607933825
 F      1.3166146109    -0.4934041276    -2.1826726635
