          30
Energy: -122.06559299616264 Kcal/mole
 H      0.0871263245    -1.3560162544    -3.6970926084
 F     -0.7817840972    -1.2554437814    -3.9723540419
 H      1.2986491351     3.7220642094    -2.3035297101
 F      0.8266546029     3.1299780652    -2.8207764205
 H     -0.2176666723     3.0687782344    -0.0862145751
 F      0.3840441135     2.4176461556     0.1480078538
 H      3.3559061030    -0.1166444500    -0.7096006425
 F      2.7679703102     0.5541314404    -0.4968091757
 H      0.0938749041    -1.1309928441    -0.6646529235
 F      0.3166992920    -1.9465043558    -0.3094357133
 H      1.6740334516    -2.8720421975    -0.6773882437
 F      2.4834825667    -3.2650350406    -0.8541303024
 H     -1.7095785153     3.6616076782    -1.5178355566
 F     -1.3171631628     4.0497334161    -0.7855394397
 H      3.3796706832     2.0667981386    -0.0588244061
 F      3.6691193259     2.9301477168     0.0495083636
 H     -1.0267470289     0.3460437194    -4.2464123904
 F     -1.0200399361     1.2586931824    -4.3353785217
 H      2.7989023183     4.0781265345    -0.7697836115
 F      2.2825041564     4.5894982836    -1.3289981255
 H      0.0406591971     1.0927106885    -0.7529164618
 F     -0.2061716925     0.3919397455    -1.2903953891
 H      3.6823986104    -2.1779487078    -1.0985998619
 F      4.2227193426    -1.4378599049    -1.1334002944
 H     -1.8969345659     2.2759437660    -3.3221748743
 F     -2.3814522713     2.7932130684    -2.7403122943
 H      1.7305184910     1.8923690512    -3.4715537742
 F      2.2813526531     1.1982880997    -3.7076096123
 H      1.9059426677    -0.3436634746    -3.2875901031
 F      1.6037129407    -1.1885685820    -3.0986944928
          30
Energy: -122.10211107928869 Kcal/mole
 H      0.0370521747    -1.3620574554    -3.6796719614
 F     -0.8227301516    -1.2699123808    -3.9849138926
 H      1.3370481073     3.7095655775    -2.3264572970
 F      0.8246176262     3.1306410887    -2.8195601650
 H     -0.1843836569     3.0909176218    -0.1097155162
 F      0.4228816824     2.4371344916     0.1016737607
 H      3.3481508410    -0.1368468389    -0.7191004628
 F      2.7839549508     0.5534110988    -0.5043541547
 H      0.1578859345    -1.1235238444    -0.6595610265
 F      0.3619198257    -1.9492399204    -0.3168481246
 H      1.6850990523    -2.8856189007    -0.6915477137
 F      2.4751178891    -3.2886890882    -0.9245577166
 H     -1.6766538676     3.7475036863    -1.5425310099
 F     -1.2834522780     4.0985602617    -0.7921705693
 H      3.3826504527     2.0529231718    -0.0729230473
 F      3.6855218294     2.9112115528     0.0388758091
 H     -1.0829619718     0.3437936835    -4.2415586024
 F     -1.0529903088     1.2531735904    -4.3556589282
 H      2.8233923771     4.0767211477    -0.7861613108
 F      2.3122193388     4.5828457646    -1.3548694936
 H      0.0588883225     1.0849861446    -0.7416334971
 F     -0.2282097546     0.3874977701    -1.2631444380
 H      3.6802044993    -2.1745383313    -1.0960007183
 F      4.2311300435    -1.4415994522    -1.1090638068
 H     -1.8592661053     2.3077546241    -3.3303185162
 F     -2.3455681806     2.8364014983    -2.7602906451
 H      1.7163538566     1.8883801837    -3.4945397643
 F      2.2821040542     1.1984996999    -3.7063902586
 H      1.8754986516    -0.3488532591    -3.3049449366
 F      1.5661508110    -1.1822704224    -3.0799810606
          30
Energy: -122.06134525647097 Kcal/mole
 H      0.0271207610    -1.3472561167    -3.7170223798
 F     -0.8335487567    -1.2520505065    -4.0188052042
 H      1.3329072226     3.7757313796    -2.3580649572
 F      0.8037587449     3.2022165643    -2.8396993051
 H     -0.1781673251     3.0924396221    -0.1223655548
 F      0.4225519203     2.4370537530     0.1023448160
 H      3.3604053781    -0.1323654022    -0.6999969527
 F      2.7833048760     0.5531733690    -0.5053675518
 H      0.0921076577    -1.1414890099    -0.6820582956
 F      0.2917561422    -1.9812200342    -0.3724112555
 H      1.6479444615    -2.8847950047    -0.7326953108
 F      2.4438286119    -3.2762898908    -0.9654809919
 H     -1.6914307978     3.7382805093    -1.5294680107
 F     -1.3053527544     4.0749571266    -0.7688882321
 H      3.3785437608     2.0550384257    -0.0778231029
 F      3.6857396800     2.9110993434     0.0391357457
 H     -1.0774771471     0.3607341617    -4.2649763843
 F     -1.0359214347     1.2719324550    -4.3592090376
 H      2.8318291785     4.0474183358    -0.8099296841
 F      2.3190236985     4.5855990092    -1.3468478366
 H      0.0543874496     1.0947419804    -0.7314988443
 F     -0.2059190413     0.3908041708    -1.2583774745
 H      3.6620167534    -2.1748795280    -1.1035305184
 F      4.2250706074    -1.4515553548    -1.0778109149
 H     -1.8713421533     2.3304730427    -3.3453635093
 F     -2.3638041908     2.8528481175    -2.7748423240
 H      1.7008884386     1.9240419302    -3.3947134476
 F      2.2712560747     1.2310219873    -3.5825780758
 H      1.8832773638    -0.3389586890    -3.2842703750
 F      1.5710129848    -1.1864965569    -3.1259683852
          30
Energy: -122.02501825366035 Kcal/mole
 H      0.0390637652    -1.3852061786    -3.7446528599
 F     -0.8232898808    -1.2613379904    -4.0308204001
 H      1.3001531635     3.7573091525    -2.3290364421
 F      0.7899817204     3.2040329892    -2.8529635226
 H     -0.1922712239     3.0793875560    -0.1220991510
 F      0.4150615763     2.4254734614     0.0886903806
 H      3.3411634113    -0.1713232771    -0.6333727599
 F      2.7704605070     0.5067876821    -0.3981011681
 H      0.0903851777    -1.1643104453    -0.7310080521
 F      0.2711238995    -1.9984956353    -0.3958102251
 H      1.6428771388    -2.9200772574    -0.7763955453
 F      2.4546364307    -3.2971153504    -0.9758400949
 H     -1.6826253290     3.7717529250    -1.5040510804
 F     -1.3122264628     4.1152387027    -0.7387333684
 H      3.3437292961     2.0373319261    -0.0343129895
 F      3.6529941274     2.8965031659     0.0497646224
 H     -1.0284693076     0.3561712988    -4.2100670385
 F     -0.9511782409     1.2668710812    -4.2845049142
 H      2.7733606298     4.0637102970    -0.7754858918
 F      2.2657526667     4.6010296024    -1.3181746791
 H      0.0377272526     1.0807024783    -0.7698255847
 F     -0.2233698655     0.3859458108    -1.3083703534
 H      3.6570231577    -2.1805702052    -1.0763552913
 F      4.2171954692    -1.4553072129    -1.0433466037
 H     -1.8596437444     2.3067388280    -3.3066577257
 F     -2.3491623372     2.8571542720    -2.7604861534
 H      1.6775917691     1.9151277613    -3.4400689511
 F      2.2724919092     1.2314948634    -3.5801720711
 H      1.8899504972    -0.3464701674    -3.2850619336
 F      1.5831523500    -1.1922171185    -3.1076471890
          30
Energy: -122.07721505851413 Kcal/mole
 H      0.0385132569    -1.4156820742    -3.7309484179
 F     -0.8276420677    -1.2851507968    -4.0022886826
 H      1.3055475637     3.7760090436    -2.3155347985
 F      0.8042913000     3.1960176748    -2.8187655311
 H     -0.1653122535     3.0895772086    -0.1516683836
 F      0.4549244275     2.4566344056     0.0840833239
 H      3.2958878519    -0.1411321295    -0.6244362094
 F      2.6973695601     0.5183215283    -0.4058367408
 H      0.1041013251    -1.1763664867    -0.7189402026
 F      0.2859120365    -2.0237375327    -0.4192801026
 H      1.6345690590    -2.9200599672    -0.8262274619
 F      2.4470187524    -3.3005876786    -1.0159987890
 H     -1.7024825075     3.6415562722    -1.5657877781
 F     -1.3288275382     4.0348170689    -0.8264523267
 H      3.2952570865     2.0203062823    -0.0281566030
 F      3.6244400336     2.8703627564     0.0715007006
 H     -1.0111777200     0.3298231634    -4.2275699590
 F     -0.9559893528     1.2399129107    -4.3254469020
 H      2.7779466924     4.0397003229    -0.7269085736
 F      2.3036770544     4.5799795060    -1.2961674907
 H      0.0919353712     1.0775890401    -0.7559585288
 F     -0.2075546864     0.3860563233    -1.2784307357
 H      3.6401736348    -2.1595797362    -1.0941554219
 F      4.1919856873    -1.4274788899    -1.0736417791
 H     -1.8665751751     2.2835833542    -3.3776089752
 F     -2.3837226820     2.7797832881    -2.8055660733
 H      1.6866985317     1.9197209194    -3.4250510477
 F      2.2720088165     1.2312512070    -3.5809687362
 H      1.8930033507    -0.3532966130    -3.3053307509
 F      1.5924417855    -1.2101202509    -3.1772487496
          30
Energy: -121.99087965629019 Kcal/mole
 H      0.0335622125    -1.3978784495    -3.6661327103
 F     -0.8337265476    -1.2817409002    -3.9403794536
 H      1.3214875210     3.7797163413    -2.3364216854
 F      0.8034457221     3.1958210112    -2.8176575300
 H     -0.1869663884     3.0723722601    -0.1388129104
 F      0.4560731294     2.4575470884     0.0834013707
 H      3.2805877340    -0.1803364060    -0.6189136039
 F      2.6769157546     0.4659712621    -0.3765181846
 H      0.0793577391    -1.1684432846    -0.6840821549
 F      0.2606354683    -2.0411326068    -0.4685810370
 H      1.6344775954    -2.9247111691    -0.8008861960
 F      2.4609034349    -3.3001979298    -0.9309593458
 H     -1.7427108085     3.6662816090    -1.5505547932
 F     -1.3757569746     4.0050638809    -0.7814901301
 H      3.2310921921     2.0078491359     0.0189179403
 F      3.5617117169     2.8564967083     0.1255810910
 H     -1.0322044192     0.3396281351    -4.1883914354
 F     -0.9679293024     1.2455975414    -4.3147921640
 H      2.8016289559     4.0394240928    -0.7475037034
 F      2.3567632698     4.5887338060    -1.3316632367
 H      0.0980541641     1.0971579036    -0.7702136149
 F     -0.2099526026     0.3847150078    -1.2585228937
 H      3.6487798326    -2.1660907418    -1.0898206832
 F      4.1915291484    -1.4271334961    -1.0738717270
 H     -1.9166183706     2.3156107021    -3.4247246026
 F     -2.3956802475     2.8797982894    -2.8833549651
 H      1.7046794487     1.9252153674    -3.3803700443
 F      2.2761289381     1.2357919778    -3.5779298353
 H      1.8837517730    -0.3363135972    -3.3030498725
 F      1.6108202450    -1.1968260751    -3.1420664683
          30
Energy: -122.08123839014954 Kcal/mole
 H      0.0371984447    -1.3897067940    -3.6744582192
 F     -0.8339194413    -1.2821743876    -3.9399378046
 H      1.2987725891     3.7677138514    -2.3230838397
 F      0.7653468873     3.1898589323    -2.7947083866
 H     -0.1797147179     3.0755611391    -0.1118370914
 F      0.4372347274     2.4328483523     0.1053785979
 H      3.2779915362    -0.1528445628    -0.6383790353
 F      2.7008399360     0.4924161366    -0.3360155782
 H      0.1431203800    -1.1114643329    -0.6306959795
 F      0.3751885323    -1.9310881688    -0.2912108689
 H      1.6910755870    -2.8869310913    -0.6937396597
 F      2.4841974970    -3.2891076180    -0.9175714654
 H     -1.7481973110     3.6638641469    -1.5140125173
 F     -1.3648428561     4.0329958128    -0.7672393421
 H      3.3502228948     2.0059405065    -0.0677630749
 F      3.6750948638     2.8618590795    -0.0153169105
 H     -1.0500388168     0.3349278529    -4.2286969078
 F     -0.9984161337     1.2461234535    -4.3178410384
 H      2.8611253638     4.0589081860    -0.8300833003
 F      2.3538217924     4.6034840935    -1.3657783324
 H      0.0509879128     1.0887836394    -0.7323204560
 F     -0.2074558467     0.3851592431    -1.2605330383
 H      3.6303153691    -2.1550141451    -1.1949807852
 F      4.1452443509    -1.3971855272    -1.2328348411
 H     -1.8807944404     2.2891858195    -3.3287646788
 F     -2.3841648133     2.8091331053    -2.7655932238
 H      1.6794520078     1.9286321343    -3.3749852255
 F      2.2553145975     1.2360534484    -3.5470492879
 H      1.8794929502    -0.3594150363    -3.2827432841
 F      1.5752338825    -1.2084990259    -3.1172990385
          30
Energy: -122.05855569608109 Kcal/mole
 H      0.0453377150    -1.4084583690    -3.7121130829
 F     -0.8159426314    -1.2723833533    -3.9959594410
 H      1.2782460138     3.7677478922    -2.3051394768
 F      0.7537873634     3.1842277320    -2.7798355340
 H     -0.2591172569     3.0523508799    -0.0951959644
 F      0.3695345316     2.4211801507     0.1223113675
 H      3.2914927817    -0.1400720647    -0.6605659930
 F      2.7151164346     0.4995560701    -0.3450423714
 H      0.1369825278    -1.1446786216    -0.6101665818
 F      0.3401555002    -1.9787721464    -0.2878348659
 H      1.6833378462    -2.8691763026    -0.6990434562
 F      2.4822692420    -3.2648822058    -0.9135532762
 H     -1.7324254554     3.6557738508    -1.5178778462
 F     -1.3656795166     4.0334249843    -0.7670342954
 H      3.3362957517     2.0253982327    -0.0692876267
 F      3.6795456383     2.8745206578    -0.0239045626
 H     -0.9905530201     0.3291180023    -4.2103503235
 F     -0.9384146692     1.2408117031    -4.2939277623
 H      2.7919795291     4.0496253649    -0.7766429437
 F      2.2696250735     4.5913785003    -1.3006070294
 H      0.0568704312     1.0684855161    -0.7519981861
 F     -0.2185035422     0.3665496027    -1.2738642113
 H      3.6359520339    -2.1387173193    -1.2381766692
 F      4.1547905487    -1.3828215968    -1.2559882477
 H     -1.8570556862     2.2513724496    -3.3351895774
 F     -2.3701623712     2.7681344887    -2.7779037218
 H      1.6292831156     1.9149141627    -3.3936346207
 F      2.1917557991     1.2123495539    -3.5694653652
 H      1.8594819669    -0.3768283508    -3.2841649047
 F      1.5831493624    -1.2379965131    -3.1327757113
          30
Energy: -122.08820538639449 Kcal/mole
 H      0.0329598371    -1.3933244507    -3.7436494786
 F     -0.8323734872    -1.3076303393    -4.0347572886
 H      1.2948152260     3.7940817424    -2.3141396205
 F      0.7767681076     3.2002601624    -2.7830661758
 H     -0.2312593921     3.0796574156    -0.1275853998
 F      0.4117173972     2.4624508673     0.0881132909
 H      3.2985005823    -0.1305436327    -0.6530225112
 F      2.7088741154     0.5064242004    -0.3572158023
 H      0.1436574251    -1.1343193157    -0.6551640535
 F      0.3300299090    -1.9624956263    -0.3083524393
 H      1.6779820792    -2.8679515841    -0.6764207626
 F      2.4835162421    -3.2584945232    -0.8751163215
 H     -1.7910091403     3.6257067363    -1.4922796592
 F     -1.4390428724     3.9926055444    -0.7291322220
 H      3.3325838130     2.0275001221    -0.0791905131
 F      3.6797425481     2.8744091574    -0.0233792373
 H     -1.0180181160     0.3219156783    -4.2465509200
 F     -0.9222844643     1.2328987409    -4.2893753001
 H      2.8564500156     4.0825469549    -0.8093531727
 F      2.3414896434     4.6283857426    -1.3363871687
 H      0.1087009994     1.0662524147    -0.7593739618
 F     -0.1452480690     0.3776824138    -1.3091650353
 H      3.6384057725    -2.1180089544    -1.1491080359
 F      4.1705345970    -1.3761330713    -1.2348290259
 H     -1.8509323317     2.2536026792    -3.3315671883
 F     -2.3704872010     2.7680161802    -2.7780958812
 H      1.6635869037     1.9028374830    -3.3255433072
 F      2.2643277906     1.2262108917    -3.4744588628
 H      1.8990380876    -0.3841429443    -3.2866525672
 F      1.6067974775    -1.2458821604    -3.1731186545
          30
Energy: -122.04020193894753 Kcal/mole
 H      0.0345645495    -1.4015324330    -3.6965503231
 F     -0.8229471214    -1.3199869641    -4.0110548078
 H      1.2927055434     3.7949832971    -2.2971758071
 F      0.7708700562     3.2404592708    -2.8081355204
 H     -0.2432567465     3.0529601632    -0.1417932100
 F      0.4149954067     2.4642815777     0.1052910384
 H      3.3275125669    -0.1058148776    -0.6258084097
 F      2.7471256733     0.5268165889    -0.3036012072
 H      0.1149416567    -1.1737451637    -0.6602834212
 F      0.2904539739    -2.0140707765    -0.3378903520
 H      1.6705168789    -2.9045757408    -0.6414190197
 F      2.4959564598    -3.2709650600    -0.8004704738
 H     -1.7711961306     3.6218503837    -1.5189482624
 F     -1.4171624056     3.9858489223    -0.7553684136
 H      3.3815568923     2.0398990209    -0.0208645931
 F      3.7121450163     2.8947544553     0.0078177805
 H     -1.0312384265     0.2964574909    -4.2558458125
 F     -0.9907402146     1.2091131090    -4.3352726190
 H      2.8450094552     4.0967762478    -0.7802189268
 F      2.3208344520     4.6253540425    -1.3156954258
 H      0.0951571694     1.0753211952    -0.7116216185
 F     -0.1683043883     0.3778971939    -1.2455474280
 H      3.6370039977    -2.1178810118    -1.1571077777
 F      4.1706089579    -1.3761398583    -1.2344046581
 H     -1.8704031008     2.2367120239    -3.3718912974
 F     -2.3581685211     2.7491464806    -2.7884662189
 H      1.6778623986     1.9213060227    -3.3232876031
 F      2.2502312291     1.2170158719    -3.4546584727
 H      1.8533305621    -0.3517264217    -3.2037745755
 F      1.5515938597    -1.2023211619    -3.0415015021
          30
Energy: -122.0538963816773 Kcal/mole
 H      0.0210488843    -1.4212685240    -3.6640405342
 F     -0.8248884160    -1.3127553115    -4.0009440319
 H      1.2909653284     3.7839711461    -2.3041138384
 F      0.7638943339     3.2014332796    -2.7771199703
 H     -0.2154905130     3.0335925284    -0.1161144256
 F      0.4555355386     2.4472855061     0.1003506149
 H      3.3478339570    -0.1409102251    -0.5630175388
 F      2.7683931075     0.5205725401    -0.3030601322
 H      0.1023197370    -1.1662140597    -0.6310716034
 F      0.3059564915    -2.0047476919    -0.3207775174
 H      1.6670940202    -2.8964130528    -0.7004082481
 F      2.4698169624    -3.2843317885    -0.9149867478
 H     -1.8234184161     3.5828155217    -1.4747898076
 F     -1.4773302865     3.9340296803    -0.7016400023
 H      3.3753155903     2.0465451564    -0.0094127401
 F      3.6966224610     2.9032815436     0.0510327533
 H     -1.0022320950     0.3096553556    -4.2327047741
 F     -0.9341231084     1.2216560783    -4.2998229376
 H      2.8748872010     4.0747954605    -0.7964454361
 F      2.3669687366     4.5898681875    -1.3600125744
 H      0.0954536367     1.0590884553    -0.7267781159
 F     -0.1726671729     0.3775927082    -1.2786510887
 H      3.6730655318    -2.1527772652    -1.1063412717
 F      4.2209012875    -1.4176282650    -1.0884266891
 H     -1.8930406760     2.2016104436    -3.3333061387
 F     -2.4150297467     2.7165510469    -2.7826223954
 H      1.6396274430     1.9017440393    -3.3109813727
 F      2.2296983701     1.2089921624    -3.4241190678
 H      1.8494395722    -0.3928198373    -3.2011120554
 F      1.5607456059    -1.2532186005    -3.0697394472
          30
Energy: -122.09015329565885 Kcal/mole
 H      0.0134132972    -1.4436125404    -3.6820963572
 F     -0.8532481167    -1.3292535795    -3.9590602930
 H      1.2609946801     3.7739923286    -2.3125551934
 F      0.7419770415     3.1934379453    -2.7967723955
 H     -0.2610106974     3.0367250055    -0.1052602330
 F      0.4046146723     2.4546254924     0.1376225042
 H      3.3672593688    -0.1359324332    -0.6215615805
 F      2.7787654486     0.4978855716    -0.3168672376
 H      0.1305273692    -1.1673370681    -0.6066443013
 F      0.2970463966    -2.0193317932    -0.3112371215
 H      1.6818531397    -2.8887757485    -0.6646293333
 F      2.4987631911    -3.2572957517    -0.8588971259
 H     -1.8831293881     3.5545221549    -1.4477784472
 F     -1.5051226911     3.9240133623    -0.6984613016
 H      3.3682693971     2.0213220148    -0.0461835788
 F      3.6978336691     2.8765645061    -0.0172582994
 H     -1.0224467210     0.2827096563    -4.1988011970
 F     -0.9517207582     1.1953924448    -4.2526246652
 H      2.8282388926     4.0527795706    -0.7877970023
 F      2.3076587830     4.5834521630    -1.3247066308
 H      0.0970687161     1.0497410624    -0.6631078536
 F     -0.1532888432     0.3558596692    -1.2078451341
 H      3.6743936887    -2.1228876793    -1.1410832718
 F      4.2329815983    -1.3964360609    -1.1747966703
 H     -1.9188512747     2.1840130871    -3.2942027855
 F     -2.4463439676     2.6892315446    -2.7397708518
 H      1.6076850536     1.8895041708    -3.3487321052
 F      2.2006075318     1.2030687551    -3.4834108154
 H      1.8264776086    -0.3845901641    -3.1951455532
 F      1.5619636850    -1.2536551657    -3.0700559564
          30
Energy: -122.09117211434727 Kcal/mole
 H      0.0518209393    -1.4291719904    -3.6994423117
 F     -0.8041996681    -1.3281066274    -4.0123376811
 H      1.2522039479     3.7577808639    -2.2825138509
 F      0.7206904673     3.1780992306    -2.7540556029
 H     -0.2332040553     3.0165805423    -0.0996709578
 F      0.4319559965     2.4336303604     0.1424451114
 H      3.3305942644    -0.1281436837    -0.6706322242
 F      2.7546112825     0.5094575166    -0.3503240697
 H      0.1533310114    -1.1737543264    -0.6183527750
 F      0.3365568419    -2.0265284232    -0.3353445863
 H      1.7084913948    -2.9160721820    -0.6314447709
 F      2.5288107954    -3.2937572771    -0.7905643799
 H     -1.7985123158     3.5686896244    -1.4897455415
 F     -1.4498320221     3.9016298024    -0.7097058690
 H      3.3668612841     2.0519569646    -0.0519242413
 F      3.6703825004     2.9153351437     0.0058857164
 H     -1.0159495522     0.2818632037    -4.2054722590
 F     -0.9520654180     1.1954373472    -4.2522707808
 H      2.7778680362     4.0696901760    -0.7698857464
 F      2.2676026708     4.5970171252    -1.3198353309
 H      0.1011515999     1.0506246039    -0.6661354937
 F     -0.1535054308     0.3558127994    -1.2076845248
 H      3.6442802897    -2.1345175028    -1.1752376878
 F      4.1759813226    -1.3918631034    -1.2567696121
 H     -1.8807121991     2.2097434819    -3.3165651642
 F     -2.4114213354     2.7443062258    -2.7936125034
 H      1.6013704474     1.8704085205    -3.2631156169
 F      2.2076879559     1.1980254974    -3.4086118332
 H      1.8655115327    -0.3976724757    -3.2225870072
 F      1.5830311557    -1.2607760508    -3.0955198782
          30
Energy: -122.1267590680539 Kcal/mole
 H      0.0688546452    -1.4499704427    -3.7585005244
 F     -0.7794218394    -1.3264569953    -4.0841697338
 H      1.2360734821     3.7732448998    -2.2958744353
 F      0.7253532661     3.1669155583    -2.7567633488
 H     -0.2502275018     2.9983955797    -0.0637745431
 F      0.4104801434     2.4033018171     0.1603187885
 H      3.3366778036    -0.1654195039    -0.6156123264
 F      2.7693208839     0.4851489352    -0.3061679345
 H      0.1614163395    -1.1682872684    -0.5802994225
 F      0.3636331539    -2.0024953818    -0.2576631202
 H      1.6989629111    -2.9183130572    -0.7175505983
 F      2.5108138171    -3.2987038796    -0.9101380556
 H     -1.7970774112     3.5967988083    -1.4873943067
 F     -1.4436141741     3.9278757736    -0.7087154364
 H      3.3637947832     2.0201012935    -0.0427934284
 F      3.6817222331     2.8792794527    -0.0024942069
 H     -1.0004568489     0.3031420026    -4.2390046458
 F     -0.9468737074     1.2178242706    -4.2760747900
 H      2.8034201512     4.0637320999    -0.8082329696
 F      2.2857368757     4.6009219097    -1.3414497497
 H      0.1145948118     1.0203845331    -0.6773582596
 F     -0.1543098228     0.3326618317    -1.2210647829
 H      3.6532056868    -2.1456636309    -1.2119009984
 F      4.1843626390    -1.3998593359    -1.2622720788
 H     -1.8887895805     2.2584157334    -3.3540622510
 F     -2.4050987509     2.7858481063    -2.8098849522
 H      1.6071672670     1.8719113932    -3.3330512198
 F      2.2039063755     1.1896150369    -3.4718428575
 H      1.8660560086    -0.3978143749    -3.2223388773
 F      1.5830022725    -1.2607685234    -3.0955330409
          30
Energy: -122.05967744680255 Kcal/mole
 H      0.0729291118    -1.4511965469    -3.7983188207
 F     -0.7567004534    -1.3295911244    -4.1695544679
 H      1.2340659479     3.7389535610    -2.2646571529
 F      0.7047357783     3.1612996436    -2.7411175639
 H     -0.2773469984     2.9876886849    -0.0616036381
 F      0.3927555081     2.4011379716     0.1570510933
 H      3.3441931322    -0.1487369372    -0.6839915201
 F      2.7576966409     0.4968669145    -0.4009605462
 H      0.1842382185    -1.1613116267    -0.6075905334
 F      0.3942441219    -1.9835636824    -0.2601886372
 H      1.7145787644    -2.9110440196    -0.6937060913
 F      2.5167509849    -3.2985685069    -0.9110387865
 H     -1.8421188679     3.5468686945    -1.4900426104
 F     -1.5085039992     3.8944132603    -0.7097843876
 H      3.3411835073     2.0259667311    -0.0909682610
 F      3.6496826230     2.8875522108    -0.0327638223
 H     -1.0020887983     0.3025462606    -4.2801407323
 F     -0.9467871363     1.2178558734    -4.2738926156
 H      2.7618959350     4.0523190143    -0.7739511802
 F      2.2213844617     4.5818826433    -1.2919267686
 H      0.0596033439     1.0380163766    -0.7267850291
 F     -0.1808606713     0.3334881026    -1.2622343438
 H      3.6831136092    -2.1559035871    -1.2029258105
 F      4.2052636567    -1.4050617298    -1.2698947091
 H     -1.8979192816     2.2181287244    -3.3354800358
 F     -2.4337054405     2.7149624141    -2.7814236517
 H      1.6043415617     1.8905007052    -3.3363810980
 F      2.2026137688     1.2174997464    -3.5096700924
 H      1.8695184889    -0.3730605754    -3.2282468427
 F      1.5843873461    -1.2294791630    -3.0665791768
          30
Energy: -122.09906842997914 Kcal/mole
 H      0.0269978324    -1.4395084342    -3.7132264938
 F     -0.8181968333    -1.3483937184    -4.0570768762
 H      1.2078252891     3.7586912030    -2.2769016942
 F      0.6994702247     3.1595968472    -2.7497125246
 H     -0.2627337393     2.9976797079    -0.0600517407
 F      0.3667370504     2.3762871667     0.1818714592
 H      3.3206004467    -0.1967669657    -0.6611310528
 F      2.7536509199     0.4467981263    -0.3366603971
 H      0.1839336497    -1.1674831191    -0.6430290972
 F      0.4071871524    -1.9796234027    -0.2804342360
 H      1.7281615483    -2.9040557672    -0.6805511514
 F      2.5270726408    -3.2940379151    -0.9053710586
 H     -1.8372985744     3.5713188536    -1.4808782381
 F     -1.4531653625     3.9218665240    -0.7255988154
 H      3.3310524195     2.0104738266    -0.0012862762
 F      3.6233763049     2.8789090252     0.0341545462
 H     -1.0500665508     0.2629975763    -4.2208287079
 F     -1.0028520871     1.1776122068    -4.2670874589
 H      2.7466005791     4.0349395062    -0.7674186706
 F      2.2243278200     4.5690385259    -1.2992630108
 H      0.0409744897     1.0288273572    -0.6957932810
 F     -0.1985260539     0.3321820826    -1.2418828808
 H      3.6903223823    -2.1634523406    -1.2022430687
 F      4.2100948775    -1.4092482542    -1.2458521195
 H     -1.9282224016     2.2171038068    -3.3245595927
 F     -2.4625018655     2.7196150781    -2.7741807444
 H      1.6080675996     1.8935305950    -3.3353575417
 F      2.2024161111     1.2173390177    -3.5097243897
 H      1.8489676592    -0.3911060654    -3.2647304818
 F      1.5567518036    -1.2478905725    -3.1183774765
          30
Energy: -122.09750079558798 Kcal/mole
 H      0.0410506101    -1.4156138795    -3.6918446764
 F     -0.8232531558    -1.3417912364    -3.9891966862
 H      1.2251950346     3.7383029535    -2.2705867628
 F      0.6985487999     3.1606783968    -2.7500475171
 H     -0.2846634689     2.9792971216    -0.0481162875
 F      0.3679003719     2.3772623204     0.1812383110
 H      3.3447375436    -0.1638708628    -0.6595861573
 F      2.7606473338     0.4511266521    -0.3110095035
 H      0.1447208352    -1.1801795462    -0.6231029094
 F      0.3187559535    -2.0056815276    -0.2637322702
 H      1.7128348315    -2.8600011534    -0.5960333631
 F      2.5239139715    -3.2433227687    -0.7860443311
 H     -1.8364461272     3.5408938637    -1.4476127555
 F     -1.4796799864     3.9023678272    -0.6841053917
 H      3.3128333420     1.9947246831     0.0031422537
 F      3.6350211167     2.8515821297     0.0568018665
 H     -1.0717899009     0.2656120584    -4.2011603046
 F     -1.0016997135     1.1774735146    -4.2681308222
 H      2.7680894962     4.0149595813    -0.7487782380
 F      2.2656353570     4.5487740605    -1.2996602034
 H      0.0467364230     1.0105371693    -0.6966782137
 F     -0.1849663834     0.3144421333    -1.2468186598
 H      3.6811889230    -2.1372454819    -1.1625473186
 F      4.2143531500    -1.3994299663    -1.2732413656
 H     -1.9428275292     2.1506491510    -3.3082887208
 F     -2.4520276152     2.6467932941    -2.7291123559
 H      1.5944645723     1.8774927194    -3.3267183813
 F      2.1968792226     1.2069025410    -3.4949277799
 H      1.8426352501    -0.3873628565    -3.2051507518
 F      1.5557324973    -1.2472518864    -3.0667070208
          30
Energy: -122.13523424986175 Kcal/mole
 H      0.0399785285    -1.4324556133    -3.6934184059
 F     -0.8231962843    -1.3408978214    -3.9891132034
 H      1.2121323884     3.7176436770    -2.2542482486
 F      0.6821755326     3.1364248252    -2.7256497519
 H     -0.2847922644     2.9887240812    -0.0340154331
 F      0.3549672321     2.3687346627     0.1832629772
 H      3.3371382450    -0.1784176136    -0.6000201227
 F      2.7339904463     0.4448559284    -0.3023091477
 H      0.0660832838    -1.2167102749    -0.6465010349
 F      0.2394753268    -2.0674750519    -0.3515035879
 H      1.6625565080    -2.8799521688    -0.6706580647
 F      2.4898110974    -3.2418099371    -0.8306511890
 H     -1.8727390283     3.5157250088    -1.4132545188
 F     -1.5079781363     3.8963811482    -0.6629616459
 H      3.2646884250     1.9975852537     0.0290146207
 F      3.5619553137     2.8603447362     0.1193886896
 H     -1.0749980900     0.2762033754    -4.2092693375
 F     -1.0144817205     1.1891381413    -4.2707256825