          30
Energy: -120.81908843808927 Kcal/mole
 H     -0.3080518708    -1.6552328322    -3.7257663317
 F     -1.1319715680    -1.5557004667    -4.1158158679
 H      1.2098479335     3.5015804530    -3.1166337337
 F      0.5571397284     2.9257187147    -3.4051545431
 H     -0.1079080796     3.0915844398    -0.7521499888
 F      0.4613154197     2.4296707049    -0.4715367045
 H      3.0108330073    -0.5897883920    -1.0561128556
 F      2.4888175593     0.1617806153    -0.9966746575
 H     -0.3345777792    -1.1496697775    -0.8052615847
 F     -0.1695695894    -1.9074108215    -0.3158846263
 H      1.0725994027    -3.0452736354    -0.6272143703
 F      1.8387968634    -3.5131416553    -0.8141099754
 H     -1.8343861203     3.6198861544    -2.0525852356
 F     -1.3856726724     4.0324113675    -1.3674807252
 H      3.2876478353     1.5755053634    -0.8752270278
 F      3.7275390327     2.3800284988    -0.8865079458
 H     -1.3633442471     0.0481805818    -4.5361652812
 F     -1.2235708519     0.9234786538    -4.7711241779
 H      2.9297010854     3.6177795009    -1.7739074871
 F      2.5054943937     4.2015994618    -2.3396741670
 H     -0.1300926440     1.0650842682    -1.1724121365
 F     -0.5333186817     0.3693625656    -1.6131717933
 H      3.2095419951    -2.6057983888    -1.0226607841
 F      3.8227527677    -1.9306772983    -1.1179134038
 H     -2.0089070324     2.0441314976    -3.7971509127
 F     -2.4691586115     2.5867655304    -3.2186997131
 H      1.2810918276     1.4650022948    -3.8935367131
 F      1.8500959696     0.7570986649    -4.0200109684
 H      1.5714840468    -0.7688784251    -3.3961554999
 F      1.2100120978    -1.5743665494    -3.1483331610
          30
Energy: -120.95902867848133 Kcal/mole
 H     -0.2548602483    -1.7283686897    -3.9210708171
 F     -1.1443899393    -1.6226720678    -4.1171681223
 H      1.1792695142     3.7066405375    -3.2143753512
 F      0.6049685671     3.1356052087    -3.6444754274
 H      0.0231222330     2.9800790169    -0.8231688671
 F      0.6315670772     2.2946961719    -0.7926037351
 H      3.1186932558    -0.5533959502    -1.1987580001
 F      2.6781160667     0.2315564559    -1.0237423991
 H     -0.2161724876    -1.3134354601    -0.8449249617
 F     -0.0086199533    -2.1476388085    -0.5256825473
 H      1.1557394905    -3.1644427935    -0.9554571138
 F      1.8835612147    -3.6837660370    -1.1590938160
 H     -1.7404403079     3.5989172491    -1.9330217302
 F     -1.2218675906     3.9892494648    -1.2852470022
 H      3.4174451196     1.7722406116    -0.9348941943
 F      3.7491940674     2.6266324972    -0.9058056825
 H     -1.3131021012    -0.0172663788    -4.3699505189
 F     -1.2067340298     0.8799866433    -4.5265131188
 H      2.8245935707     3.8568225801    -1.6898713720
 F      2.3104557433     4.3958136081    -2.2246984153
 H     -0.0280639850     0.8890457279    -1.1786363096
 F     -0.5164998677     0.1798247876    -1.4937950734
 H      3.2131827809    -2.6916819471    -1.4336190599
 F      3.8305587857    -2.0136461915    -1.4354583250
 H     -2.0664203376     1.9851134762    -3.6181231428
 F     -2.4825365641     2.5776871088    -3.0554573663
 H      1.3759801990     1.6866709115    -3.9168589677
 F      1.9308426331     0.9568569447    -3.9365631062
 H      1.5355413539    -0.5766143953    -3.5493916691
 F      1.2964194298    -1.4410620794    -3.3584992732
          30
Energy: -120.69441079499175 Kcal/mole
 H     -0.4707748917    -1.8150079923    -3.5144825500
 F     -1.3698459790    -1.6566199795    -3.6009314786
 H      1.1771773488     3.7218025756    -3.3250647298
 F      0.5775788358     3.1728516322    -3.7493564748
 H     -0.0881574071     2.9823694567    -0.7305867094
 F      0.5970700979     2.3839767239    -0.6153547531
 H      3.3374341551    -0.5546333950    -1.1199984933
 F      2.8875440373     0.2176744043    -0.9149898467
 H     -0.1184917941    -1.3195875933    -0.4743850034
 F      0.0895780917    -2.1173468269    -0.0729175355
 H      1.2340164428    -3.2473898432    -0.6040040068
 F      1.9351933419    -3.7059885457    -0.9767333808
 H     -1.9227479427     3.5206357528    -1.7767501564
 F     -1.4027641970     3.8970549714    -1.1219108814
 H      3.4691158978     1.7548658962    -1.2990599351
 F      3.8710607474     2.5251435766    -1.5923202853
 H     -1.4174903122    -0.0791420585    -4.0212978956
 F     -1.3127933212     0.7926121196    -4.2858204711
 H      2.9517583014     3.9000528307    -2.0286856903
 F      2.3492234890     4.4708807164    -2.4185527507
 H      0.0290427004     0.8717937576    -0.9346042037
 F     -0.4126413334     0.1121753212    -1.1968713299
 H      3.2060875647    -2.7324091480    -1.4082622442
 F      3.8725898452    -2.1046927511    -1.4596026295
 H     -2.1982317242     1.9260487590    -3.4088327298
 F     -2.6710609823     2.5190768075    -2.8934307251
 H      1.2742369325     1.5708876840    -3.9508652682
 F      1.8606312612     0.8683907113    -3.8914624510
 H      1.5013253772    -0.7439839404    -3.5537213577
 F      1.2297274108    -1.5680756643    -3.2570795279
          30
Energy: -120.96372545328636 Kcal/mole
 H     -0.1687643974    -1.7630134311    -3.2875610810
 F     -1.0552162551    -1.6839649193    -3.5085665939
 H      1.3421972558     3.7013164137    -3.4342900313
 F      0.7620868500     3.1124785327    -3.8313175706
 H      0.0296281670     3.2455914358    -0.8517048041
 F      0.6518533901     2.6030371441    -0.6495940573
 H      3.2641119652    -0.4767730463    -0.9780084245
 F      2.7865986156     0.3038908590    -0.9194092107
 H      0.2470555281    -1.0303082733    -0.2942298079
 F      0.4772373375    -1.7978168075     0.1516804798
 H      1.4743269439    -3.0291141580    -0.4342475678
 F      2.1729693878    -3.5478668926    -0.7235282894
 H     -1.8776728466     3.6418479868    -1.8416415072
 F     -1.3132187452     4.1368389341    -1.3150823657
 H      3.5075282359     1.8170481902    -1.0793807360
 F      3.8467673995     2.6579920946    -1.2158327039
 H     -1.3871436136    -0.1334296914    -3.8826172622
 F     -1.4698482293     0.7456864852    -4.1300110668
 H      2.9427289760     3.8665375068    -1.9332156276
 F      2.4645000277     4.4473991069    -2.4574158513
 H     -0.0187443176     1.1240667307    -0.9056919252
 F     -0.3350579635     0.2962982559    -1.1415605953
 H      3.4350239226    -2.5935359713    -1.0746177663
 F      4.0369992642    -1.9085159631    -1.1708584874
 H     -2.3614483271     1.9069202775    -3.2424915786
 F     -2.7321827957     2.5270999394    -2.6778482038
 H      1.4456042606     1.6258378721    -3.9146495508
 F      1.9568379593     0.8749343545    -3.7894576483
 H      1.7440741557    -0.7079760237    -3.2287763491
 F      1.4687312094    -1.5254613357    -2.9176605724
          30
Energy: -120.88012714383864 Kcal/mole
 H     -0.1807370826    -1.5846115215    -3.3894600202
 F     -1.0822859192    -1.5816340441    -3.5570602288
 H      1.2503540040     3.6398721617    -3.1747012422
 F      0.6531730947     3.0016271906    -3.4520229299
 H     -0.0258793583     3.2862356351    -0.7529050621
 F      0.4306918072     2.5714434662    -0.4043309291
 H      3.4021064766    -0.3632999916    -1.2402160642
 F      2.9115038500     0.4081546602    -1.1691120346
 H      0.2409639929    -0.9914945631    -0.4236735541
 F      0.5195511056    -1.7085238685     0.0754729132
 H      1.6013910194    -2.8610489581    -0.4314644687
 F      2.2935363041    -3.3714072708    -0.7498326479
 H     -1.5174212519     3.9736531786    -2.0493115050
 F     -0.9523340173     4.3970694347    -1.4642610018
 H      3.6138950453     1.9119012967    -1.2163804710
 F      3.9500319027     2.7634059665    -1.2696797247
 H     -1.5413837128    -0.0013516369    -3.9899132782
 F     -1.5706567967     0.8707393758    -4.2718518390
 H      3.0785070633     3.9845960738    -2.0554947584
 F      2.4956876616     4.5177796855    -2.5212476770
 H      0.0505322826     1.0640855869    -0.9005003127
 F     -0.2147323904     0.2897657423    -1.3139642549
 H      3.5709147712    -2.4358561988    -1.1527339537
 F      4.1987520160    -1.7813905930    -1.2883221718
 H     -2.1748715864     2.1865757138    -3.4842595222
 F     -2.4874263613     2.9254215589    -3.0400688764
 H      1.4295282354     1.6479851347    -3.9876044238
 F      1.9850808127     0.9332881561    -4.1340918387
 H      1.7363734627    -0.6261116764    -3.5298123133
 F      1.4313554607    -1.4292193977    -3.2090772102
          30
Energy: -121.28632712833041 Kcal/mole
 H     -0.4537464003    -1.7708406067    -3.1726446803
 F     -1.3532470266    -1.6901361919    -3.3316239897
 H      1.1349646944     3.4511850548    -3.1907046114
 F      0.4555056705     2.8843670983    -3.4314157223
 H      0.1491124045     3.2679228780    -0.6546618671
 F      0.7555799399     2.6121956373    -0.4470374118
 H      3.5320707585    -0.4341266013    -1.1852846942
 F      2.9810754600     0.2895334375    -1.0686256644
 H      0.3346173580    -0.9371504529    -0.2805877995
 F      0.5931832457    -1.6750089082     0.1985756190
 H      1.7519057095    -2.7644900378    -0.3468364654
 F      2.4247022222    -3.2900337493    -0.6815567363
 H     -1.6021638248     3.7328015417    -1.6312532776
 F     -1.0264519155     4.2662569854    -1.1570485886
 H      3.7890806900     1.7261894695    -1.2572225950
 F      4.1802350096     2.5402967777    -1.4157047361
 H     -1.6380329540    -0.1325943636    -3.7867042674
 F     -1.6438137970     0.7533894551    -4.0231112360
 H      3.1712584241     3.6374087456    -2.2182299371
 F      2.5773364784     4.1579224822    -2.6842891312
 H      0.2161200209     1.1314616889    -0.8227121667
 F     -0.1452445745     0.3590336786    -1.1598465586
 H      3.7325096931    -2.4646011542    -1.2112532986
 F      4.3476380592    -1.8093904483    -1.3934757562
 H     -2.1875509796     2.0083863611    -3.0060324786
 F     -2.5335941131     2.5678059914    -2.3671327784
 H      1.1548537283     1.4574610471    -3.9273376416
 F      1.6689403394     0.7062279874    -4.0380302178
 H      1.4074490930    -0.8040349642    -3.3604621894
 F      1.1786302129    -1.6343139760    -3.0455531825
          30
Energy: -121.21264037528793 Kcal/mole
 H     -0.3819321050    -1.6915836091    -3.4526335859
 F     -1.2535592978    -1.5548966975    -3.7025770296
 H      1.2361278500     3.4756398695    -2.9616224437
 F      0.6098313127     2.8496169598    -3.1998176663
 H      0.0153881765     3.2454667684    -0.5951837761
 F      0.6262036579     2.6194279836    -0.3197407012
 H      3.4827303506    -0.3819878674    -1.0670270301
 F      2.9452141696     0.3542569883    -0.9674837349
 H      0.1770814766    -1.0531725708    -0.3791265728
 F      0.3213157243    -1.8835984070    -0.0179086159
 H      1.5737279533    -2.9385458231    -0.3123829895
 F      2.3515705756    -3.3979104806    -0.4699709528
 H     -1.6627105807     3.7778671537    -1.7202486367
 F     -1.1428947008     4.2255962944    -1.1117923380
 H      3.5659178158     1.9048404711    -0.9349590543
 F      3.9469174014     2.7358936275    -1.0062259266
 H     -1.4566648023     0.0360057442    -4.0129958623
 F     -1.4783987223     0.9328746790    -4.2028451457
 H      3.1192902693     3.8773788787    -1.8329396294
 F      2.5078295698     4.3355992864    -2.3399296401
 H      0.1484246485     1.1573895604    -0.8202751067
 F     -0.1602864379     0.3839483282    -1.2041697869
 H      3.5825159797    -2.4491500102    -1.0572393300
 F      4.2146466695    -1.8216974410    -1.2754205947
 H     -2.1512270766     2.1259969506    -3.2244298560
 F     -2.5033952960     2.7563296934    -2.6591448142
 H      1.2458576655     1.4329312114    -3.8424171499
 F      1.6945797743     0.6708481757    -4.0848360348
 H      1.4713715288    -0.8120202807    -3.3605077859
 F      1.1912537611    -1.5932343977    -2.9704724802
          30
Energy: -121.04363627399289 Kcal/mole
 H     -0.3071107366    -1.7883282832    -3.4972141123
 F     -1.2025214194    -1.6666785355    -3.6531950339
 H      1.2254473632     3.4656857319    -3.1195980249
 F      0.5919894970     2.8466198709    -3.3570376835
 H      0.0493668908     3.0882695354    -0.4029296299
 F      0.6099414377     2.3968324963    -0.1825662973
 H      3.3268770045    -0.3323315346    -1.2083768499
 F      2.8613005933     0.4456067921    -1.0707557569
 H      0.0441630606    -1.0981160768    -0.3703375743
 F      0.2537496384    -1.8859316474     0.0495541893
 H      1.5239398182    -2.9330306536    -0.2824737891
 F      2.3327323837    -3.3394512031    -0.4293271956
 H     -1.5980809083     3.5861303223    -1.6806725970
 F     -1.0601932591     4.0979083466    -1.1424819889
 H      3.6340684117     1.9752876896    -1.1094463145
 F      3.9860119098     2.8187753970    -1.1839665242
 H     -1.5583554775    -0.0726717028    -3.9935852552
 F     -1.5280781813     0.8176968078    -4.2108781466
 H      3.1154310729     3.8296021707    -2.0938659507
 F      2.5764621649     4.2904259876    -2.6752805413
 H      0.0550964068     1.0663951628    -0.8583725627
 F     -0.2988648457     0.3117540930    -1.2406254733
 H      3.5341889368    -2.4253303270    -1.1366231661
 F      4.1183305702    -1.7808444224    -1.4269772103
 H     -2.1955107521     1.8824309415    -3.1273079150
 F     -2.5370373480     2.4445839534    -2.4883771085
 H      1.3636070876     1.4697131119    -4.0016215960
 F      1.8985729119     0.7503577423    -4.1945682700
 H      1.5857351823    -0.7244803917    -3.4787456507
 F      1.3179142842    -1.5269603979    -3.1249281750
          30
Energy: -121.04745284813637 Kcal/mole
 H     -0.3822941850    -1.7009520768    -3.3478700003
 F     -1.2838236412    -1.5479494947    -3.4166002660
 H      1.4185282440     3.4003551875    -3.4335317092
 F      0.7599874044     2.8558816530    -3.7663402621
 H      0.4342364574     3.2826179677    -0.7211604507
 F      0.9949527183     2.5740283841    -0.5649968285
 H      3.2255676771    -0.4588107865    -1.5406475588
 F      2.8892793302     0.3935512450    -1.5763982926
 H      0.1611156461    -0.7345468108    -0.4478669370
 F      0.3850307871    -1.4595595661     0.0670189867
 H      1.1780356574    -2.8451138171    -0.4209054562
 F      1.6745430801    -3.4999017170    -0.8278725128
 H     -1.3549543525     3.8445417908    -1.8907087986
 F     -0.7198375049     4.2543018281    -1.3714667531
 H      3.7924874001     1.8293652063    -1.4056048918
 F      4.1847401128     2.6519405322    -1.5075688202
 H     -1.5781291870     0.0112655844    -3.9106076690
 F     -1.5689900163     0.8816674766    -4.1990622089
 H      3.2266105615     3.7961953547    -2.2776007074
 F      2.5937145009     4.3087740571    -2.6990205104
 H      0.2844197700     1.2283764728    -1.1092007258
 F     -0.2026473552     0.5206426366    -1.4297743251
 H      3.0182979445    -2.6544749918    -1.3039070941
 F      3.6682496828    -2.0135703303    -1.3916165727
 H     -2.0338734696     2.2348205800    -3.3162884414
 F     -2.3638454500     2.8773901977    -2.7513886462
 H      1.2678692234     1.3362237855    -4.2904779550
 F      1.6959764564     0.5600447282    -4.5253380581
 H      1.5064738023    -0.8265863181    -3.6592963163
 F      1.2659000768    -1.5861952974    -3.2054158461
          30
Energy: -121.11129186960677 Kcal/mole
 H     -0.2950497717    -1.7006146400    -3.2436561826
 F     -1.1875352258    -1.5988685625    -3.4280645611
 H      1.7252694101     3.4546857636    -3.6207773173
 F      1.0789291046     2.8642324411    -3.8937206877
 H      0.7033854560     3.4449019158    -0.9984398913
 F      1.2369412139     2.7445936398    -0.7419724044
 H      3.4267365695    -0.3775688661    -1.3657224058
 F      3.0079989256     0.4354946940    -1.4326210816
 H     -0.0731099937    -0.7852143269    -0.5218997972
 F      0.1015199477    -1.5864827072    -0.1115799630
 H      1.3676523065    -2.6490759485    -0.3093739209
 F      2.1082376115    -3.1889697924    -0.3399850849
 H     -0.9457539634     3.9966668395    -2.2055919442
 F     -0.3019620100     4.4609006167    -1.7463448202
 H      3.9604378043     1.8157940429    -1.4540735880
 F      4.4190555055     2.5984895504    -1.5880383100
 H     -1.3548022148    -0.0603562188    -3.9598993935
 F     -1.2398066622     0.8156188002    -4.2055267312
 H      3.4923947811     3.7448349114    -2.3694207134
 F      2.9407687604     4.2423901597    -2.9070418701
 H      0.3303922085     1.3691991445    -0.9963050553
 F     -0.2052170334     0.6760952257    -1.2676327130
 H      3.4776263576    -2.4536725889    -0.9510701646
 F      4.1092719437    -1.8516713134    -1.2330405848
 H     -1.7486998875     2.0992621672    -3.2445494287
 F     -2.0156697278     2.8192539961    -2.7433230621
 H      1.5875325234     1.3498122570    -4.2824395641
 F      1.9608286697     0.5336419777    -4.4706018939
 H      1.6891913573    -0.8594041536    -3.5209495993
 F      1.3606482622    -1.5712855637    -3.0453727994
          30
Energy: -120.98724391267588 Kcal/mole
 H     -0.1336989939    -1.6448522054    -3.5321201198
 F     -1.0130837988    -1.4459183901    -3.6994422701
 H      1.7154359236     3.4782757964    -3.6637893580
 F      1.0266441245     2.9096376254    -3.8714079696
 H      0.7480928570     3.4530712399    -1.0985209998
 F      1.3911534201     2.8219595621    -0.9280505849
 H      3.6150725885    -0.2229612555    -1.2661885319
 F      3.1938778386     0.5889520363    -1.3316162719
 H      0.3387876246    -0.5568722550    -0.6985867549
 F      0.4335167243    -1.2493955655    -0.1050154769
 H      1.4010138086    -2.5749901143    -0.4023551713
 F      2.0093663448    -3.2160853529    -0.6468814208
 H     -1.0576593897     3.9661256598    -2.2979413431
 F     -0.5021445762     4.4325173458    -1.7368967039
 H      4.0591195366     2.0289180073    -1.4120685849
 F      4.4969132067     2.8304930243    -1.4939416236
 H     -1.1825263167     0.0637579377    -4.2964290977
 F     -1.1808660416     0.9421827462    -4.5595946335
 H      3.6477387614     3.8505878460    -2.5168418740
 F      3.1244943033     4.2988050000    -3.1219911283
 H      0.7376303217     1.4160453672    -1.4517866864
 F      0.2116914222     0.7298257655    -1.7573679885
 H      3.4241118623    -2.4169529232    -1.0676830032
 F      4.0625150668    -1.7692957135    -1.1854560361
 H     -1.7868754877     2.2432562030    -3.6306673588
 F     -2.0952204917     2.9286909506    -3.1053183650
 H      1.5690345944     1.3961587124    -4.4038463572
 F      2.0287270477     0.6304517722    -4.6118481120
 H      1.8299216296    -0.7827171578    -3.7192921775
 F      1.5473918052    -1.5313835202    -3.2714478116
          30
Energy: -120.92785055294502 Kcal/mole
 H      0.0171306602    -1.5152508936    -3.4595000580
 F     -0.8737660706    -1.4339736344    -3.6609597865
 H      1.9495753228     3.3952834130    -3.6866362340
 F      1.3096242157     2.7868805757    -3.9340176563
 H      0.8656787510     3.4783183938    -1.0750840520
 F      1.4931858633     2.8507398099    -0.8442833913
 H      3.7413484482    -0.3311460303    -1.4204081182
 F      3.3744520578     0.4862354108    -1.6157632269
 H      0.1335217193    -0.5234755757    -0.8143442535
 F      0.1632748037    -1.3078908304    -0.3403226694
 H      1.3730909908    -2.4770980994    -0.4803444663
 F      2.0504992373    -3.0913505282    -0.5489084601
 H     -1.0432164854     3.8370765400    -2.3307595913
 F     -0.4665925939     4.2715868855    -1.7654325644
 H      4.2987465291     1.8495229896    -1.6147473426
 F      4.6991236342     2.6711545454    -1.6889683657
 H     -1.0894204319     0.0818264237    -4.3544067832
 F     -1.1010910735     0.9425296309    -4.6705440718
 H      3.7533423073     3.7759298797    -2.5460472642
 F      3.2433530727     4.2603112508    -3.1344133644
 H      0.7583382330     1.4268024544    -1.3473803107
 F      0.2126896964     0.8039230452    -1.7413065931
 H      3.5300494000    -2.4150397709    -0.9149838162
 F      4.2246038786    -1.8405671551    -1.0836974489
 H     -1.6799330688     2.1999115327    -3.7572360227
 F     -2.0041072626     2.8559661762    -3.2046128266
 H      1.7699655609     1.3112646580    -4.5412328915
 F      2.1505967875     0.5118883829    -4.7799931059
 H      1.9023796035    -0.8054672219    -3.7683011217
 F      1.6145101892    -1.4765664798    -3.2136426805
          30
Energy: -121.27601225148784 Kcal/mole
 H     -0.0499781225    -1.6862916708    -3.6843699586
 F     -0.9379630840    -1.5282609398    -3.8498933595
 H      2.0384452067     3.4469023779    -3.8797921184
 F      1.3204506756     2.9308923956    -4.1229105081
 H      0.8550353954     3.3530913564    -1.3374776250
 F      1.4736508554     2.7195447879    -1.0991025883
 H      3.7904055135    -0.3861165149    -1.3882439633
 F      3.3890617945     0.4381217297    -1.3671836833
 H      0.3020834941    -0.7960548561    -0.9289839843
 F      0.3492691552    -1.4995739155    -0.3427046597
 H      1.5123108725    -2.6645910360    -0.5308448007
 F      2.1921376449    -3.2601742028    -0.6857810811
 H     -0.9601946314     3.7890010847    -2.4657464429
 F     -0.4195801092     4.2311835962    -1.8715246284
 H      4.1605888502     1.9401305573    -1.4418711459
 F      4.5207068411     2.7751228312    -1.5601586566
 H     -1.0322371229    -0.0408312461    -4.5217320990
 F     -0.9092907615     0.8308579441    -4.7785027121
 H      3.8105130190     3.8351421409    -2.6356049849
 F      3.3036370654     4.2539232717    -3.2748139743
 H      0.7556458896     1.3208245345    -1.5602383472
 F      0.2630870417     0.6134859177    -1.8732029818
 H      3.6006728269    -2.5218404083    -1.2340857387
 F      4.2859655775    -1.9659360307    -1.4835515057
 H     -1.5288911559     2.0898074400    -3.9394533788
 F     -1.8800460925     2.7757085320    -3.4423428253
 H      1.8269506336     1.3449019080    -4.4208667681
 F      2.3085025174     0.5695912582    -4.5096934503
 H      1.8705336806    -0.8082742498    -3.6866479254
 F      1.5213145254    -1.5540348183    -3.2831926538
          30
Energy: -121.14728592990456 Kcal/mole
 H     -0.1967805130    -1.6565033064    -3.7444983629
 F     -1.0876116876    -1.4858062492    -3.8792994495
 H      1.8975326118     3.6617499916    -3.7498570996
 F      1.2010561897     3.1240545726    -4.0081074235
 H      0.8743493789     3.4855590991    -1.3164732767
 F      1.4496003017     2.8088214400    -1.0884348664
 H      3.6841619558    -0.3807664880    -1.6356249923
 F      3.2879729589     0.4429426059    -1.5619594819
 H      0.4401872159    -0.7087622570    -0.6829021431
 F      0.7211392337    -1.4620243528    -0.2418225826
 H      1.5351964464    -2.7759462525    -0.7957263334
 F      2.1318988611    -3.3755915519    -1.1496482786
 H     -0.9488927799     4.0364295925    -2.2785051417
 F     -0.3255387445     4.4838665242    -1.7763906740
 H      4.1633981313     1.8144499576    -1.8500520575
 F      4.5935138646     2.5884306377    -2.0884705192
 H     -1.2332270716     0.1270644562    -4.2610307829
 F     -1.0398533215     1.0042996840    -4.4452967533
 H      3.7690250404     3.8941256109    -2.7188488748
 F      3.1998691651     4.4396262857    -3.1872286389
 H      0.6411941396     1.4150929354    -1.2896030064
 F      0.1205319955     0.6910117548    -1.5029252406
 H      3.4921523155    -2.5586655487    -1.6234972109
 F      4.1976502167    -1.9772873826    -1.6953382812
 H     -1.6491247372     2.2883160544    -3.5356361563
 F     -1.9732448211     2.9965126951    -3.0515982556
 H      1.8058730803     1.6041846108    -4.4791994298
 F      2.2653190334     0.8226563204    -4.6170832485
 H      1.8176852694    -0.6239954900    -3.8589035188
 F      1.4812858956    -1.3801276257    -3.4639495282
          30
Energy: -121.15394068394446 Kcal/mole
 H     -0.2902527174    -1.5534671456    -3.9340250470
 F     -1.1690497836    -1.3154017213    -4.0432476183
 H      2.1180015353     3.4283976052    -3.8939572424
 F      1.3672281990     2.9409393631    -4.0929870382
 H      0.7412028283     3.5034820478    -1.3323281227
 F      1.2950112829     2.8224619476    -1.0670041345
 H      3.6336703890    -0.4905911586    -1.6986204667
 F      3.2380567601     0.3351298709    -1.7492528484
 H      0.3737512857    -0.6326985173    -0.9094698892
 F      0.4951877827    -1.3635647981    -0.3691212454
 H      1.4366509247    -2.7162649752    -0.8136166741
 F      2.1031601210    -3.3059458528    -1.0348200959
 H     -0.8380440483     4.2706773550    -2.5434194756
 F     -0.2227953602     4.6658609826    -1.9900769485
 H      4.1576780425     1.7006149292    -1.7392753114
 F      4.5869008539     2.5060062694    -1.8287267915
 H     -1.3036192780     0.2750871793    -4.4303691049
 F     -1.2119883703     1.1399166618    -4.7211658431
 H      3.9629035977     3.6280952511    -2.8600268562
 F      3.5278328976     4.1053301242    -3.5110639994
 H      0.5984197251     1.4152595564    -1.5993606968
 F      0.1779522810     0.6911054359    -1.9731212326
 H      3.5621336673    -2.5627855560    -1.4451736469
 F      4.2443551359    -1.9724358038    -1.6093383134
 H     -1.6559584507     2.4827197311    -3.8461347252
 F     -1.8914732534     3.2183191731    -3.3518521758
 H      1.7570668365     1.3725675402    -4.5574524174
 F      2.1646459386     0.5658668589    -4.7123791298
 H      1.7320063191    -0.8044158453    -3.9214079548
 F      1.3599490897    -1.5816881085    -3.6078633056
          30
Energy: -121.22822042299413 Kcal/mole
 H     -0.2920184759    -1.4019765331    -4.0063498032
 F     -1.1441505203    -1.1819889728    -4.2639647332
 H      2.0898750700     3.4454399833    -3.8061354306
 F      1.3591774829     2.9590127225    -4.0713873034
 H      0.8773757017     3.5892576981    -1.4562039754
 F      1.3390500678     2.8403726828    -1.1975207454
 H      3.4695280346    -0.3957005834    -1.5003053559
 F      3.0543388773     0.4218747139    -1.5091142673
 H      0.1091512901    -0.6611706937    -1.1129045418
 F      0.0734659060    -1.4587663576    -0.6618427831
 H      1.2078436637    -2.6104135823    -0.8918801704
 F      1.9212975942    -3.1721497886    -1.0196491947
 H     -0.7039945271     4.2378744348    -2.7809498624
 F     -0.2004879175     4.6726707284    -2.1498220805
 H      4.0577282534     1.6996993914    -1.4764411230
 F      4.5407564089     2.4755207018    -1.5517677140
 H     -1.0525480204     0.3650639329    -4.8817679153
 F     -0.8503921937     1.2165712689    -5.1555511845
 H      3.8754668711     3.6812538140    -2.5634060990
 F      3.4286987205     4.1735129569    -3.1950453599
 H      0.6240958055     1.4741739890    -1.6595192846
 F      0.1474430740     0.7802331809    -2.0230262699
 H      3.3457733484    -2.4689761502    -1.3915806737
 F      4.0563351632    -1.9047050187    -1.5242041916
 H     -1.3700451869     2.6159059023    -4.2837715875
 F     -1.6638435136     3.3221798985    -3.7780556736
 H      1.8765200941     1.4607641171    -4.5503224135
 F      2.2702631388     0.6429750143    -4.6809991069
 H      1.7334098326    -0.7215206643    -3.9791456876
 F      1.3125299420    -1.4686146396    -3.6541845979
          30
Energy: -121.34688706525358 Kcal/mole
 H     -0.3798981667    -1.4614685696    -3.8037581916
 F     -1.2491263096    -1.2166571924    -3.9631282802
 H      2.1083662636     3.5093497323    -3.7908241078
 F      1.4790830375     2.9398075959    -4.1379744733
 H      0.8549834648     3.6159416511    -1.3616588366
 F      1.2654240970     2.8683718698    -1.0246619381
 H      3.4051207300    -0.3648687553    -1.4506672447
 F      3.0604033511     0.4284673442    -1.1462386620
 H      0.1497745681    -0.6289105753    -0.8671398722
 F      0.2307961503    -1.3795152881    -0.3466429286
 H      1.2125052194    -2.7228889372    -0.7434212600
 F      1.8871803196    -3.3096433053    -0.9469447739
 H     -0.6939937820     4.2467894694    -2.7123298751
 F     -0.0762558303     4.7159631160    -2.2232849770
 H      4.0082046324     1.8409486478    -1.3833186571
 F      4.4910426287     2.5791174685    -1.6340441276
 H     -1.1150460524     0.2807234749    -4.5580337595
 F     -0.8783258364     1.1181019048    -4.8472566917
 H      3.6459770179     3.8458565969    -2.3582000032
 F      3.1586367363     4.3973536069    -2.9052278799
 H      0.5786062803     1.4653826665    -1.5003561675
 F      0.1358210250     0.7362569499    -1.8368170227
 H      3.2149095967    -2.4895798926    -1.5906997006
 F      3.8593537967    -1.9077365288    -1.8857233828
 H     -1.3890600656     2.3934397812    -3.9527795016
 F     -1.6930123289     3.0766919706    -3.4220550276
 H      1.9676146134     1.3827596909    -4.4282216946
 F      2.3868375112     0.5675749680    -4.4034219079
 H      1.6759065706    -0.8500240243    -3.8173436437
 F      1.2290661631    -1.5704295277    -3.4677173276
          30
Energy: -121.13384316933326 Kcal/mole
 H     -0.2969391804    -1.4729221756    -3.9180278520
 F     -1.1817534082    -1.2578975564    -4.0264584535
 H      2.1142563724     3.4643974197    -3.7493236741
 F      1.4466263368     2.9265102432    -4.0746489280
 H      0.7459191617     3.6691633811    -1.2838396301
 F      1.2876180662     2.9611807157    -1.0688702314
 H      3.4662526716    -0.1671085099    -1.3119978904
 F      3.0048120263     0.5868322527    -1.0680002322
 H      0.1129771917    -0.5991467412    -0.9914317701
 F      0.1707828805    -1.4162082057    -0.5791720636
 H      1.2622335353    -2.6024480575    -0.9647001372
 F      1.9327920680    -3.2056295731    -1.1302667809
 H     -0.7697562008     4.3253376159    -2.6688190341
 F     -0.2678395541     4.7479000169    -2.0281867706
 H      3.9422036842     2.0440893527    -1.0462933740
 F      4.4662575192     2.7790378026    -1.2078710764
 H     -1.0871567666     0.2979104163    -4.5637148825
 F     -0.8856583228     1.1573416951    -4.8120397790