          6
Energy: -16.870371413882197 Kcal/mole
 H     -0.5163103665    -0.7878976729    -1.8150127527
 F     -0.3444626408    -0.3264908494    -2.5886154301
 H     -0.2821447428    -0.0021130932    -0.0367059522
 F     -0.5770822803    -0.8688943153    -0.0876094090
 H      0.1170914500     1.0810722658    -1.6321785487
 F      0.2356606436     1.4722282619    -0.8113086851
