          6
Energy: -16.837241810997 Kcal/mole
 H      0.7252671091    -0.5695559380    -1.9143355998
 F      1.0006019072     0.2017946874    -2.3267649414
 H     -0.1123552643    -0.6072101458    -0.0966321202
 F     -0.0135228122    -1.3951372022    -0.5552082864
 H      0.5138514284     1.1036182368    -0.9017916933
 F      0.1415536911     1.1231298250    -0.0639953620
          6
Energy: -16.641645382641684 Kcal/mole
 H      0.2290373733    -0.6523848229    -1.6849561442
 F      0.2621819740     0.0446488502    -2.2798800839
 H      0.3001809985    -0.3680221237     0.3044978728
 F      0.2355588802    -1.2160233956    -0.0384406417
 H      0.5800022563     1.2050117396    -0.9310255879
 F      0.6037314040     1.3878516061    -0.0327519599
          6
Energy: -16.830952584218494 Kcal/mole
 H      0.1848622251    -0.7264095340    -1.8575455116
 F      0.3338828216    -0.0880434114    -2.4987713340
 H      0.2541342957    -0.3441266732     0.0615104167
 F      0.0446997986    -1.1931553797    -0.2144903931
 H      0.5598581720     1.1065550010    -1.2198087493
 F      0.5986355983     1.3237629137    -0.3297491817
          6
Energy: -16.784780950368372 Kcal/mole
 H     -0.0839367324    -0.9393801421    -1.9266263875
 F      0.2206891694    -0.4129639022    -2.6129047584
 H     -0.2935307835    -0.2644849546    -0.1022623749
 F     -0.6161369431    -1.1070470717    -0.2662847653
 H      0.5113426925     0.8897063171    -1.4953785034
 F      0.4744408281     1.2279817078    -0.6438522193
          6
Energy: -16.774213879742206 Kcal/mole
 H     -0.5866627583    -0.7107214949    -1.9514883423
 F     -0.2781491402    -0.2229605629    -2.6640875428
 H     -0.4150966860    -0.1073595016    -0.1227207324
 F     -0.8550507495    -0.8988010095    -0.2674610568
 H      0.2264875766     1.0742753868    -1.5487712842
 F      0.2848414119     1.3600781131    -0.6794033347
          6
Energy: -16.787722284543918 Kcal/mole
 H     -0.6489344267    -0.6950385115    -1.8648539647
 F     -0.4430787149    -0.2085290526    -2.6144011428
 H     -0.5157919793    -0.0363088187    -0.0616028819
 F     -0.8520823595    -0.8804617593    -0.1849057328
 H      0.0060267648     1.1081485506    -1.5838631082
 F      0.0950899391     1.4886500510    -0.7542997537
          6
Energy: -16.819074015801732 Kcal/mole
 H     -0.6454026347    -0.7415732904    -1.8722894970
 F     -0.4575896452    -0.2471324891    -2.6213846679
 H     -0.3196713129    -0.1079280923    -0.0772388100
 F     -0.6204644724    -0.9708168653    -0.1536288660
 H      0.0649025978     1.0784659314    -1.5814375495
 F      0.2128756668     1.3878933109    -0.7309978587
          6
Energy: -16.84151801429465 Kcal/mole
 H     -0.5327331196    -0.7758900586    -1.8312095963
 F     -0.3934447354    -0.3052685624    -2.6058083010
 H     -0.2915802178     0.0323030350    -0.0449492305
 F     -0.5842770793    -0.8359307599    -0.0822000641
 H      0.1045588619     1.1104093836    -1.6392594734
 F      0.2520010420     1.4820838519    -0.8140274496
          6
Energy: -16.859954813757895 Kcal/mole
 H     -0.5076123207    -0.7902497311    -1.8145388429
 F     -0.3449240520    -0.3263660781    -2.5886405699
 H     -0.3028304741     0.0047476142    -0.0386264110
 F     -0.5759849500    -0.8692582600    -0.0875075331
 H      0.1355341322     1.0779496586    -1.6331295027
 F      0.2346823020     1.4723939089    -0.8112582391
          6
Energy: -16.870371413882197 Kcal/mole
 H     -0.5163103665    -0.7878976729    -1.8150127527
 F     -0.3444626408    -0.3264908494    -2.5886154301
 H     -0.2821447428    -0.0021130932    -0.0367059522
 F     -0.5770822803    -0.8688943153    -0.0876094090
 H      0.1170914500     1.0810722658    -1.6321785487
 F      0.2356606436     1.4722282619    -0.8113086851
