          6
Energy: -16.811932278091035 Kcal/mole
 H     -0.8868479203    -0.5467756105    -2.0722878373
 F     -0.5245753831    -0.2480912512    -2.8599649680
 H     -0.8386866929     0.5019074683    -0.4249254753
 F     -1.1835872461    -0.3469882228    -0.3887493233
 H     -0.1040831353     1.3115981574    -2.0885666925
 F     -0.1067880041     1.8115726005    -1.3198617817
          6
Energy: -16.781307970740897 Kcal/mole
 H     -0.9428998075    -0.5120085742    -2.0066186211
 F     -0.3692075736    -0.3241738692    -2.6968970753
 H     -1.6246628241     0.8429235841    -0.6815796157
 F     -1.8770239271    -0.0334345310    -0.5856664895
 H     -0.4066505396     1.3607591996    -2.2386014014
 F     -0.7305585701     2.0233775747    -1.6937073962
          6
Energy: -16.79000026591285 Kcal/mole
 H     -1.1149284213    -0.5609601315    -1.9838361315
 F     -0.8000375171    -0.4033803482    -2.8305363916
 H     -1.5742849791     0.9143075369    -0.7492809807
 F     -1.7479313611     0.0541121418    -0.4831986324
 H     -0.9106604382     1.3046024010    -2.5521275765
 F     -1.0329400963     2.0215878785    -1.9936756894
          6
Energy: -16.773187608886474 Kcal/mole
 H     -1.6517368959    -0.4828434719    -2.3267888993
 F     -1.1583151022    -0.2148235936    -3.0517642632
 H     -2.2697982597     0.9743415963    -1.0345778122
 F     -2.5009289849     0.1108968596    -0.8298077596
 H     -1.2526161258     1.4538813605    -2.5896029846
 F     -1.4951947590     2.1483623317    -2.0421171059
          6
Energy: -16.809862084430222 Kcal/mole
 H     -1.3432852193    -0.4261190347    -2.0727351748
 F     -1.0657294434    -0.1961393099    -2.9159202775
 H     -2.1837491750     0.9119195676    -0.8375049233
 F     -2.0412988830     0.0605680401    -0.5279932259
 H     -1.5415504594     1.4804597785    -2.6454072842
 F     -1.9194784484     2.1215022014    -2.1095677120
          6
Energy: -16.804460409866067 Kcal/mole
 H     -1.5764965916    -0.4925405056    -2.1919887853
 F     -1.0766463915    -0.1663804579    -2.8881629020
 H     -2.7279062682     0.7792323767    -1.1642102783
 F     -2.7299233460    -0.0996336276    -0.9025244402
 H     -1.6955060908     1.4333767451    -2.6689573204
 F     -2.1992100473     2.0370450493    -2.1969870854
          6
Energy: -16.84750523247584 Kcal/mole
 H     -1.6096143873    -0.4697569502    -2.1863969270
 F     -1.2548161566    -0.2530994327    -3.0037504219
 H     -2.6066622204     0.8345021339    -1.0939015096
 F     -2.4767727829     0.0062054389    -0.7224956412
 H     -1.9126006928     1.3696589879    -2.8766089067
 F     -2.3913519644     1.9845302630    -2.3932668591
          6
Energy: -16.85861795847984 Kcal/mole
 H     -1.5574710800    -0.4622705689    -2.0966067387
 F     -1.1764041444    -0.2721516197    -2.9087223559
 H     -2.6733478396     0.8341579910    -1.1045430464
 F     -2.5430049787     0.0060618120    -0.7328490096
 H     -1.8945099399     1.3528942850    -2.8403624771
 F     -2.4151008281     1.9694574357    -2.4047892819
          6
Energy: -16.87145359681989 Kcal/mole
 H     -1.6000949460    -0.4876074906    -2.1098097068
 F     -1.1881309467    -0.2906456789    -2.9050333911
 H     -2.6879920063     0.8250438493    -1.1060446202
 F     -2.5964160616    -0.0187039989    -0.7587804340
 H     -1.8238930778     1.3371228654    -2.8061190837
 F     -2.3173207368     1.9793153015    -2.3759946594
          6
Energy: -16.876208737131606 Kcal/mole
 H     -1.6012769698    -0.4925742251    -2.1116717716
 F     -1.1880682431    -0.2903822051    -2.9049346128
 H     -2.6781149295     0.8228393871    -1.1137599177
 F     -2.5969400177    -0.0185870572    -0.7583711553
 H     -1.8234737946     1.3433815366    -2.8148412402
 F     -2.3173429788     1.9789832934    -2.3755319692
