          6
Energy: -16.866449839900156 Kcal/mole
 H      2.2905696842    -0.9640731897    -0.2424311770
 F      2.9858660161    -0.3786441593    -0.3637772157
 H      0.4115797995    -0.3531917780    -0.1903123219
 F      0.5626398849    -1.2516969201    -0.0865898064
 H      1.8537708806     0.9359802611    -0.4525751842
 F      0.9930830386     1.2518066076    -0.4336237294
