          3
Energy: -2.699280470290004E-4 Kcal/mole
 He    -3.4050047920     4.9806649098     2.3942229333
 He    -6.1041493694    -1.3214573918     2.1732184316
 He    -3.9405366196     3.7569925337    -6.6320656230
          3
Energy: -0.0017312053969570174 Kcal/mole
 He     3.8316812560     2.5781369355    -1.4146286559
 He     5.5370989609     0.9082089348     6.1266208675
 He     0.8537145405     0.2206764441     7.3280248340
          3
Energy: -3.032385203787101E-5 Kcal/mole
 He     3.6263457686     0.3781798369     5.6587554166
 He     0.0800187254    -7.4787706003    -0.2791170879
 He    -6.5427015244    -1.1275511687    -6.5043329321
          3
Energy: -1.785496189817822E-4 Kcal/mole
 He    -1.5580193108    -2.1083073960    -6.3137979336
 He     6.9617098490     4.2594907419    -5.5466685577
 He    -0.6745297031    -7.4352470757    -1.5647546375
          3
Energy: -2.3374919169357283E-4 Kcal/mole
 He     5.7276513505     2.5743738588    -6.9037430465
 He     1.0577078219     5.5614700320    -2.7651560973
 He     5.5452169887    -6.5668403657    -3.5334435848
          3
Energy: -0.0014257220707242326 Kcal/mole
 He     1.8497370467     7.4450127449    -7.1665793470
 He    -2.3410904931    -0.9502365582    -4.4586116114
 He    -0.0433096737    -5.3942719419    -4.3647607756
          3
Energy: -4.956045670728819E-4 Kcal/mole
 He     4.3669861779    -2.1345976737    -5.4484011543
 He    -6.2028698197    -3.6973522309     3.4803529989
 He    -1.6199951849    -2.4915802515    -5.6898889626
          3
Energy: -2.9470348193996948E-5 Kcal/mole
 He     7.4176763286     6.4075724288    -3.4669021409
 He    -5.4849138769     3.9148005758    -0.6184691569
 He    -3.4618228173    -5.6980896772    -0.1336174209
          3
Energy: -3.320439196909019E-5 Kcal/mole
 He     4.4056223031    -0.1878810539     0.0441422059
 He    -2.2790618371    -6.7946578032    -3.9291762456
 He    -4.8234074898    -0.8982034568     7.2437760252
          3
Energy: -0.05999915740348741 Kcal/mole
 He     3.3913229581    -2.4404099493     0.1193736738
 He     0.7661720406    -2.7382533003    -1.0023261811
 He     1.1416749007    -2.8868350303     1.8383243444
