          3
Energy: -0.05999963433512097 Kcal/mole
 He     0.6353129292     4.6583863226     2.6904968280
 He     2.7939614304     4.7503269627     4.5801140734
 He     0.5074643206     6.4506700923     4.9261534302
