          3
Energy: -7.438634847793631E-6 Kcal/mole
 He    -6.1902044599    -4.2851503114     6.9339951282
 He    -7.2849075777    -6.8326390767    -7.4104922592
 He     4.6926008218    -1.2357597555    -1.8951758160
          3
Energy: -4.1968627800147227E-4 Kcal/mole
 He    -3.2699539768     0.5143787999    -5.5788274455
 He    -0.8049008086     0.7710363622     3.3725716596
 He    -1.0075331746     6.2067969699    -6.7785912533
          3
Energy: -1.612722707371424E-4 Kcal/mole
 He    -7.4986443786    -0.0067033021    -4.9410345298
 He     2.0592569333    -5.4453320245    -7.2099308358
 He     0.0233619718     2.4325364162    -4.7558555946
          3
Energy: -0.0010865126921193059 Kcal/mole
 He    -2.9262064657    -6.6872800981    -1.9252886634
 He    -0.4211984815     1.8308462533    -6.0229253654
 He    -2.4503687523     6.1311473176    -3.8077364676
          3
Energy: -2.294201539251254E-5 Kcal/mole
 He     0.5957995027    -3.5997924335    -1.2909838961
 He     3.7817022209     7.3056348344    -3.0928496955
 He    -6.7612477036    -2.6058155873     6.8337038069
          3
Energy: -0.002673967799484749 Kcal/mole
 He    -5.6160743747    -3.7278501392    -0.3724215874
 He     0.6296303401    -2.4611018652     2.7085562984
 He    -2.8676464880    -5.4690788670    -3.5705836839
          3
Energy: -0.0028552217483028535 Kcal/mole
 He    -6.3150228076     2.9791668285    -1.7915740111
 He     1.6902081203     5.7202138166     2.6510348101
 He     2.6029902583     1.6703755673     4.2206672046
          3
Energy: -6.309310873121289E-5 Kcal/mole
 He     2.1539111637    -6.6324111794    -1.4352409852
 He     0.5601517852    -3.7051855390     6.4201624413
 He     0.0450516030     7.1532786966    -3.1010748877
          3
Energy: -0.004121902431689763 Kcal/mole
 He    -6.8709100877     6.4170847336    -3.2693178527
 He     3.8667699109     6.5860420841     6.2291756796
 He    -0.0156153430     6.9069198091     4.7857084377
          3
Energy: -0.05999963433512097 Kcal/mole
 He     0.6353129292     4.6583863226     2.6904968280
 He     2.7939614304     4.7503269627     4.5801140734
 He     0.5074643206     6.4506700923     4.9261534302
