          3
Energy: -0.059998891075629925 Kcal/mole
 He     0.4600070669     4.0856161400    -0.5736826430
 He     1.6015857621     1.4624606863    -0.4015744837
 He     3.3089697633     3.7633910108    -0.5285737761
