          3
Energy: -0.05999915740348741 Kcal/mole
 He     3.3913229581    -2.4404099493     0.1193736738
 He     0.7661720406    -2.7382533003    -1.0023261811
 He     1.1416749007    -2.8868350303     1.8383243444
