          3
Energy: -0.059999885259067284 Kcal/mole
 He    -0.8619812280     0.4311779529     1.5681887118
 He    -3.0418607129    -1.3147454958     0.9152149446
 He    -2.7692084141     1.2034691497    -0.4306554053
