          3
Energy: -7.523346833269177E-4 Kcal/mole
 He    -2.2424415303    -3.5345874006     3.8832513602
 He    -4.6728896046     1.5388292625     4.3310421282
 He     1.8381491641     3.2591079859    -1.7015555277
