          3
Energy: -4.363164167483613E-4 Kcal/mole
 He     5.7973248255    -2.0309875462     0.6653070372
 He     1.8786567967     4.7990028900    -6.5884911449
 He    -2.2116777269     0.5629487464    -4.7189148216
          3
Energy: -5.682773387750569E-5 Kcal/mole
 He     6.1897510577     4.0921088213    -4.6508335304
 He    -6.5708854561    -1.3469069876    -2.6484294186
 He    -5.5671305909     4.6984747660     3.5308265239
          3
Energy: -4.1804456488113206E-4 Kcal/mole
 He     4.3166767911     0.8239596229    -3.3494603460
 He    -0.3335847826    -2.1463675284     2.2514033897
 He     7.0554610511     5.4037638262     0.2696220936
          3
Energy: -0.006442805128989881 Kcal/mole
 He    -2.0770208580    -0.3739096055    -4.6364479246
 He     0.2624736327    -3.2618275829    -5.6922215737
 He    -5.0392493193     2.3212322761     0.5750578912
          3
Energy: -1.2915109354739133E-4 Kcal/mole
 He     6.7845775185    -1.2046485565    -5.3361545374
 He    -4.7265806500    -4.8863556266     0.0228628670
 He     1.4310252856    -7.2069440268    -5.9975755644
          3
Energy: -5.9394265315107247E-5 Kcal/mole
 He    -5.5560038806    -0.2576611002     6.6885599166
 He    -3.0407659404    -6.3434528203     0.4296146826
 He    -2.9284884719     5.1855780616    -2.6113647388
          3
Energy: -0.0013372751888856486 Kcal/mole
 He     0.1846283560     6.0809830823     2.2255819263
 He    -6.9522474947     3.1956088949    -1.9386913567
 He    -2.8337837471     0.5770057614     0.0461280473
          3
Energy: -2.9762759169737427E-4 Kcal/mole
 He     4.5750092650    -5.7878842932     4.7266140694
 He     6.6775332926    -3.7262624534    -2.5121451162
 He    -1.8114652037    -4.9922623337     1.6736760019
          3
Energy: -4.2450978336319606E-5 Kcal/mole
 He     3.6895586744     3.8593540445     4.6701668282
 He     0.9816818240    -5.0627823361     2.5869088462
 He    -6.6126672421     2.1844023572    -2.8392243253
          3
Energy: -0.059999885259067284 Kcal/mole
 He    -0.8619812280     0.4311779529     1.5681887118
 He    -3.0418607129    -1.3147454958     0.9152149446
 He    -2.7692084141     1.2034691497    -0.4306554053
