          10
Energy: -37.88160080360083 Kcal/mole
 H      0.7868028917    -1.0256610983     2.6409316538
 F     -0.1104375623    -1.0488466823     2.4530194497
 H      0.3858297112     1.8116292341     0.4090253865
 F      1.1666043641     2.2690794287     0.2606365030
 H      2.5468920808     1.7458855333     1.0161789402
 F      3.2099616230     1.3350713697     1.4983194853
 H      2.7992940487    -0.0152348602     2.3712727637
 F      2.4199550225    -0.7340032775     2.7959642582
 H     -0.6937348928     0.1097028813     1.4249453430
 F     -0.8604467253     0.8066638651     0.8528076394
