          14
Energy: -53.959564880776355 Kcal/mole
 H      0.2749189372     1.5442143284    -2.0005039807
 F      0.9175323945     2.0801895609    -1.6254473256
 H     -1.5589394808    -2.5603808828     0.9806632518
 F     -1.9967475931    -2.7152251308     0.1899443917
 H      0.1862521010    -1.6945261906     2.1277334643
 F     -0.6248540298    -2.0977441387     2.2706009934
 H      1.1312394602     1.7864742632    -0.0067171899
 F      1.1868447266     1.5256183395     0.8706374941
 H      1.5137667696     0.0097878027     1.4213121432
 F      1.5569711919    -0.8696651126     1.6774077262
 H     -2.4558148198    -1.3270827833    -0.5665532835
 F     -2.6077581580    -0.4970407809    -0.9254857231
 H     -1.5622084520     0.1503091182    -2.0121426761
 F     -0.8752616369     0.4680832063    -2.5298421083
          14
Energy: -53.933108179769576 Kcal/mole
 H      0.2049217781     1.5296689108    -1.9654812636
 F      0.7090092634     2.1326827006    -1.4930839982
 H     -1.4959018581    -2.6356685656     0.8191368415
 F     -1.9483421436    -2.7957503366     0.0377530596
 H      0.2144459644    -1.7967220014     1.9670882290
 F     -0.6082444706    -2.1657643577     2.1340528581
 H      1.2145720869     1.7545297582     0.0372399736
 F      1.4044480034     1.5202363477     0.9032323142
 H      1.5461299183    -0.0783502875     1.3493281127
 F      1.5550542056    -0.9811966169     1.5095712485
 H     -2.5167648983    -1.4438698987    -0.7468226179
 F     -2.6521165569    -0.6399364916    -1.1666559247
 H     -1.4279002888    -0.0445981328    -2.0994028607
 F     -0.6989038773     0.2650505661    -2.5615401946
          14
Energy: -53.86990295720027 Kcal/mole
 H      0.3221676448     1.4532183734    -1.9891796735
 F      0.8442379972     2.0485160207    -1.5266299375
 H     -1.2929808337    -2.6064431794     0.7771194715
 F     -1.7188985124    -2.7545200014    -0.0213518090
 H      0.3047962838    -1.7434340038     2.0821013801
 F     -0.5154661342    -2.1433098376     2.1724223800
 H      1.4458407981     1.7519927666    -0.0059442062
 F      1.6953826913     1.5316314922     0.8484905498
 H      1.7527342413    -0.0268219992     1.3491055699
 F      1.6782831818    -0.9156524287     1.5620057983
 H     -2.2961003805    -1.4681919833    -0.8841423972
 F     -2.5724212272    -0.7353456371    -1.3610826686
 H     -1.3572666971    -0.0616565211    -2.2484215700
 F     -0.6276484608     0.2952476975    -2.6740571042
          14
Energy: -53.824984826009455 Kcal/mole
 H      0.2180587866     1.3672678680    -1.9295135354
 F      0.5608023243     2.0257749079    -1.3911973219
 H     -1.4879701362    -2.4534664122     0.8933235840
 F     -1.9047292083    -2.7109868298     0.1181564341
 H      0.2486299257    -1.5075870354     1.9919470836
 F     -0.6101692369    -1.7923279604     2.1411972226
 H      1.2294550652     1.7857468174     0.1087235313
 F      1.5977164711     1.5797607198     0.9228747854
 H      1.7080242170     0.0192852776     1.3836322604
 F      1.6793084297    -0.8749015896     1.5848640922
 H     -2.4066796444    -1.4237429909    -0.8027666276
 F     -2.5012135956    -0.6444408741    -1.2767292240
 H     -1.3018692441    -0.1830318580    -2.3146988474
 F     -0.5338966320     0.0915450157    -2.7338821097
          14
Energy: -53.83964798271242 Kcal/mole
 H      0.4051951624     1.3924066220    -2.0093131229
 F      0.9457357821     1.9931457159    -1.5759340979
 H     -1.4561812647    -2.3001582553     1.0171904673
 F     -1.9624711701    -2.5261997287     0.2868037314
 H      0.3319556126    -1.4726702380     2.0429711235
 F     -0.4760730466    -1.8325182542     2.2848142361
 H      1.3308080883     1.8480033176     0.0247121373
 F      1.4919462549     1.6946159988     0.9143164435
 H      1.7235510032     0.1053505235     1.3557321411
 F      1.7127273787    -0.7913479286     1.5473143300
 H     -2.4979954179    -1.3117495978    -0.7468475746
 F     -2.6345297314    -0.6143636358    -1.3264165535
 H     -1.3747713145    -0.1021070824    -2.2527748646
 F     -0.5842395841     0.1701285539    -2.6293865235
          14
Energy: -53.852574802398976 Kcal/mole
 H      0.4713550128     1.4907850741    -1.8655290860
 F      1.0354405511     2.0874326007    -1.4572298886
 H     -1.4259728926    -2.1737394380     1.0762585966
 F     -2.0252494674    -2.3077256548     0.3952268200
 H      0.5169790770    -1.3985227670     2.0602508803
 F     -0.2952148642    -1.7892299091     2.2293009647
 H      1.4872424100     1.9901100625     0.1306132763
 F      1.7115470282     1.8117881603     1.0016917673
 H      1.8798791421     0.2440054193     1.3927839685
 F      1.8878115949    -0.6525039645     1.5853897861
 H     -2.5312543053    -1.1024325953    -0.5632861745
 F     -2.6249010161    -0.3636518667    -1.0983771281
 H     -1.3413350952     0.0722129815    -2.0540965767
 F     -0.5520748129     0.3090562279    -2.4564179451
          14
Energy: -53.75377551544125 Kcal/mole
 H      0.2844262415     1.6288170410    -1.8511981820
 F      0.7678605982     2.2664032643    -1.4032427930
 H     -1.4470076387    -1.9953015834     1.1037350504
 F     -1.8876420361    -2.1844035991     0.3220888674
 H      0.2918163264    -1.2574207518     2.2395083982
 F     -0.5796553513    -1.4949128771     2.3976969103
 H      1.2443434169     1.8836730943     0.1404852716
 F      1.4638611398     1.6103207523     0.9878219617
 H      1.8058780847     0.0788259803     1.5127294020
 F      1.7880209316    -0.7928380756     1.7969333706
 H     -2.4693249691    -1.0387130080    -0.7170779201
 F     -2.6927058237    -0.3507613295    -1.2807378192
 H     -1.4517569663     0.2135242058    -2.1690041028
 F     -0.6515722876     0.4384923192    -2.5562802678
          14
Energy: -53.97021028989073 Kcal/mole
 H      0.3886216438     1.6540649553    -1.8452352397
 F      0.8892352941     2.2431158659    -1.3519868257
 H     -1.5514322133    -2.2610361736     1.1125880734
 F     -2.0113826037    -2.4556736801     0.3435296365
 H      0.2914395651    -1.4631344658     2.1159070287
 F     -0.5554858326    -1.7450705335     2.3259508919
 H      1.3891116424     1.9816663820     0.2001492826
 F      1.6477023424     1.6898601181     1.0301305801
 H      1.7458464263     0.0636555330     1.4053152951
 F      1.7096736589    -0.8380999371     1.5678502242
 H     -2.3855237538    -1.2816529224    -0.7564390080
 F     -2.5158514071    -0.5888924951    -1.3429427959
 H     -1.2300678585     0.0574342347    -2.1551456086
 F     -0.4972316586     0.4447235310    -2.5473790914
          14
Energy: -53.92776368343472 Kcal/mole
 H      0.5185831095     1.6263264035    -1.9785410216
 F      1.0991386458     2.1994649121    -1.5597851031
 H     -1.4270865471    -2.2974652922     1.1631300679
 F     -1.9071045743    -2.4603631994     0.3989730385
 H      0.3867691685    -1.5766773502     2.1696526236
 F     -0.4491508917    -1.8636674136     2.4141180739
 H      1.3275630160     1.8681033322     0.0484607116
 F      1.4516577346     1.5861162351     0.9121578680
 H      1.6852102482     0.0200642373     1.3311402153
 F      1.7366508936    -0.8797059619     1.5004223723
 H     -2.3495580209    -1.1562595871    -0.5588317936
 F     -2.4344458833    -0.3972921549    -1.0664256152
 H     -1.2342270664     0.1179502136    -2.0481425838
 F     -0.5002084008     0.4268903117    -2.5027430835
          14
Energy: -53.927640701571036 Kcal/mole
 H      0.6424105835     1.4821814360    -1.9722500828
 F      1.1675672004     2.0791775094    -1.5154183675
 H     -1.4934999346    -2.2846944175     1.1882799141
 F     -1.9806083284    -2.4529077637     0.4297822655
 H      0.3482760439    -1.5118807082     2.1932605573
 F     -0.4702912226    -1.8371878774     2.4482348222
 H      1.6968407388     1.8129275368     0.0513422668
 F      1.9503134215     1.5787962937     0.9009440324
 H      1.9049270914    -0.0305928948     1.3043055123
 F      1.7515122139    -0.9151630075     1.4910903915
 H     -2.3485723903    -1.2857249963    -0.7151884933
 F     -2.4564608830    -0.5983431669    -1.3124784512
 H     -1.1470168735    -0.0372438459    -2.1794098727
 F     -0.3869640634     0.3043339862    -2.5622065687
          14
Energy: -53.92758497039651 Kcal/mole
 H      0.6778671869     1.2183038866    -2.0601496006
 F      1.1778359274     1.8515627216    -1.6243704061
 H     -1.5202444239    -2.3653105262     1.1438481981
 F     -2.0009963924    -2.5482351692     0.3847005709
 H      0.3193326704    -1.4769579941     2.1214189600
 F     -0.5098977847    -1.7878099673     2.3594040500
 H      1.6574899638     1.8040895854    -0.0454049499
 F      1.9173902491     1.6392209234     0.8184001010
 H      1.8188661786     0.0589834829     1.3509332929
 F      1.7195275157    -0.8391031590     1.5073341037
 H     -2.2931145889    -1.2642115160    -0.6124740255
 F     -2.3058770038    -0.5168269986    -1.1436449056
 H     -1.0197139902    -0.2060386139    -2.1354487789
 F     -0.2459482427    -0.0236242068    -2.5925051782
          14
Energy: -53.912558298153954 Kcal/mole
 H      0.6050395861     1.4230538546    -2.1731640504
 F      1.1341131145     2.0770022906    -1.8080316847
 H     -1.5463551292    -2.3626312441     1.2070699002
 F     -2.0522304430    -2.5503489324     0.4656245304
 H      0.2892346102    -1.4649849986     2.1491601376
 F     -0.5038370460    -1.8585957656     2.3879003985
 H      1.5629356156     1.8879246441    -0.2322304427
 F      1.7294102143     1.7027260355     0.6503094620
 H      1.7347147272     0.1728725144     1.2640958280
 F      1.6649388993    -0.6991371666     1.5390857370
 H     -2.2566361092    -1.1950482549    -0.4943628234
 F     -2.2221103454    -0.4174860237    -0.9792276996
 H     -1.0273301093    -0.1170166401    -2.1055434292
 F     -0.2759891639     0.0680984451    -2.5975883347
          14
Energy: -53.973924086205045 Kcal/mole
 H      0.6146484187     1.4391478511    -1.9669952316
 F      1.0992068076     2.0902753604    -1.5402340168
 H     -1.4748999515    -2.3393592582     1.0620040096
 F     -1.9178978802    -2.5797084277     0.2959269169
 H      0.2235499910    -1.4261951172     2.1840971490
 F     -0.6159036252    -1.7499499171     2.3612678455
 H      1.4163463651     1.8883448765     0.1049795586
 F      1.5722759207     1.6977679565     0.9883002316
 H      1.7023291530     0.1024120252     1.4283585253
 F      1.6555284083    -0.7980521164     1.5952807229
 H     -2.3060317216    -1.3536070175    -0.7701934894
 F     -2.4115745075    -0.6155474427    -1.3040640584
 H     -1.0911664997    -0.1150874589    -2.1967884404
 F     -0.2902262933     0.1498387945    -2.5562294870
          14
Energy: -53.997182182924874 Kcal/mole
 H      0.5253292576     1.3710180704    -2.0469740803
 F      1.0317472782     1.9787251671    -1.5831617550
 H     -1.7206607317    -2.1921997865     1.2181707073
 F     -2.2247010757    -2.3285064408     0.4643452450
 H      0.1867937469    -1.4597403483     2.2121761238
 F     -0.6360784320    -1.8129128559     2.4097604274
 H      1.1335234709     1.8351494977     0.0638359550
 F      1.1677544644     1.6646263951     0.9641909465
 H      1.5054589444     0.1507072552     1.5230942750
 F      1.5983808386    -0.7273130010     1.7707532162
 H     -2.4706088125    -1.0539148708    -0.5447053512
 F     -2.4816453053    -0.3104686521    -1.0814128281
 H     -1.2502817168     0.0013323997    -2.1614959471
 F     -0.5088624113     0.2061066998    -2.6607492889
          14
Energy: -53.91101373200527 Kcal/mole
 H      0.4102187613     1.5361676768    -2.0352985849
 F      0.8774493957     2.1525672210    -1.5427174888
 H     -1.6669703853    -2.1472882533     1.1368213859
 F     -2.1623057229    -2.3585267618     0.3945881370
 H      0.0859863744    -1.2796220266     2.2335640569
 F     -0.7342174411    -1.6525184211     2.4041600123
 H      1.1516115948     2.0143815805     0.0966789091
 F      1.2987832309     1.8625253578     0.9889620464
 H      1.4958242691     0.2955270490     1.5008717944
 F      1.4886554258    -0.5941340804     1.7229994209
 H     -2.4814697710    -1.0806879352    -0.5921660294
 F     -2.5238560313    -0.3107597465    -1.0884552486
 H     -1.3437546262     0.1181855274    -2.1889349981
 F     -0.5895704830     0.3812288730    -2.6393830824
          14
Energy: -54.00083576107194 Kcal/mole
 H      0.5072280838     1.5089216481    -1.9763294342
 F      0.9894388046     2.1533878028    -1.5369831058
 H     -1.6298759630    -2.1904016863     1.1378694769
 F     -2.1081263203    -2.3210597583     0.3664460757
 H      0.1037655168    -1.4149179889     2.2625192713
 F     -0.7047304787    -1.7900985642     2.4780714950
 H      1.1724694008     2.0170004818     0.0944907350
 F      1.2020135692     1.8399384375     0.9937488595
 H      1.3935995528     0.2837829402     1.4729894216
 F      1.4158472482    -0.6114640311     1.6702884343
 H     -2.4598419430    -1.0386146074    -0.6588097770
 F     -2.5328133497    -0.2941531866    -1.1892259973
 H     -1.2333690724     0.0608174768    -2.1144743326
 F     -0.4401493879     0.2555970394    -2.5313105765
          14
Energy: -53.97542980984038 Kcal/mole
 H      0.7834812715     1.3344926317    -1.8890929968
 F      1.3111801911     1.9538066039    -1.4661591318
 H     -1.6321091458    -2.2042018697     1.2929887190
 F     -2.1036488675    -2.3535644235     0.5208293324
 H      0.0898498079    -1.3841333324     2.4090763449
 F     -0.7417828891    -1.7318409457     2.5775265541
 H      1.4213922384     1.9237290002     0.2045178719
 F      1.4093839895     1.8121164804     1.1146208591
 H      1.5130270371     0.2496716930     1.6392285154
 F      1.4746744086    -0.6331318660     1.8843324769
 H     -2.3114984352    -0.9937869426    -0.3782738880
 F     -2.3352082649    -0.2202400100    -0.8701600406
 H     -1.0911078453     0.0806171739    -1.9347010145
 F     -0.3288895033     0.2134060783    -2.4269197728
          14
Energy: -53.9425958248644 Kcal/mole
 H      0.8443301851     1.1942200104    -1.7791434326
 F      1.4029369436     1.8466058445    -1.4578332823
 H     -1.8381988684    -2.0943409576     1.3918197864
 F     -2.3805978881    -2.2110493285     0.6617023578
 H      0.1153957085    -1.3431355518     2.3839682550
 F     -0.7280494794    -1.6567299097     2.5604556309
 H      1.4930545634     1.9160848891     0.1863590501
 F      1.4718441448     1.8331485403     1.0993544938
 H      1.5228288911     0.2814998133     1.6176801638
 F      1.5224352636    -0.6043533050     1.8546466126
 H     -2.4892760964    -0.9370756273    -0.4078984647
 F     -2.4538750776    -0.2015397089    -0.9543622610
 H     -1.0364411175    -0.0626325104    -1.7886449318
 F     -0.1940128243    -0.0313534474    -2.1495122079
          14
Energy: -53.995936480014706 Kcal/mole
 H      0.8675473927     1.1785639586    -1.8598885515
 F      1.3869711365     1.8329184203    -1.4818565253
 H     -1.8781504897    -2.0531379028     1.3250442088
 F     -2.3835840257    -2.2880249899     0.5968587950
 H     -0.0344578161    -1.1591710720     2.3581225718
 F     -0.8822161628    -1.4687242513     2.5205159668
 H      1.4667609078     1.9160127814     0.1636644577
 F      1.4401813651     1.8364078035     1.0768159103
 H      1.4637045400     0.3020613737     1.6495735308
 F      1.4051789652    -0.5835400278     1.8801682286
 H     -2.4802743188    -1.1505886817    -0.5978492920
 F     -2.4454315114    -0.4801930543    -1.2225449631
 H     -1.0264771600    -0.1968981411    -2.0222128808
 F     -0.1936880090    -0.0369637141    -2.3711716306
          14
Energy: -54.01715396182762 Kcal/mole
 H      0.9624931743     1.1967474588    -1.9040933845
 F      1.5081006932     1.8318143972    -1.5300727713
 H     -1.7881615752    -1.9958330671     1.4639424732
 F     -2.1978982435    -2.2742617388     0.6922674526
 H     -0.0869859253    -1.0773603088     2.5427729813
 F     -0.9450848739    -1.3417144412     2.7289774043
 H      1.6133764221     1.8584434626     0.1105720484
 F      1.5800405045     1.7648419679     1.0221730998
 H      1.5506138019     0.2671779129     1.7032869043
 F      1.4172892821    -0.5812916295     2.0245547179
 H     -2.3520182421    -1.1434542672    -0.5006095214
 F     -2.3107591255    -0.4650806689    -1.1162359881
 H     -0.9475602326    -0.1309953114    -1.9672332824
 F     -0.1288571878     0.0380479990    -2.3441134804
          14
Energy: -53.99861258362098 Kcal/mole
 H      0.8756287387     1.1593337553    -2.0134607941
 F      1.3722524059     1.7992556168    -1.5836306599
 H     -1.7206874174    -2.0716986739     1.4403092995
 F     -2.0902104383    -2.3430251854     0.6461281733
 H     -0.0870442079    -1.1348895387     2.5945175852
 F     -0.9452585077    -1.4266610801     2.7331775408
 H      1.4518878797     1.8506163396     0.1073811025
 F      1.3884625864     1.7512369304     1.0167709888
 H      1.4491581752     0.2711233235     1.7314634934
 F      1.3850168701    -0.5607874353     2.1118572135
 H     -2.2269977834    -1.2274777348    -0.5708679683
 F     -2.1943379821    -0.5493630186    -1.1872953924
 H     -0.8756927239    -0.2707438644    -2.1236370925
 F     -0.1055540062    -0.0605559551    -2.5748536683
          14
Energy: -53.979215153320666 Kcal/mole
 H      0.7505586415     1.3092061581    -1.9450653395
 F      1.1653414883     2.0201738767    -1.5408759123
 H     -1.6558738062    -2.1700922539     1.3819338064
 F     -2.0075586960    -2.4017777161     0.5673611670
 H      0.0162542215    -1.2961080379     2.5156770928
 F     -0.8340357343    -1.5896407258     2.6938190371
 H      1.5230234410     1.8716187432     0.0796972009
 F      1.6489457750     1.6562264717     0.9621022866
 H      1.6070284082     0.1502799961     1.7199656148
 F      1.4886369833    -0.6975359753     2.0487216781
 H     -2.2225446097    -1.1968378777    -0.5464590867
 F     -2.2223489616    -0.4675268294    -1.1023316949
 H     -0.9057934322    -0.1905481594    -2.0519097376
 F     -0.1046860460    -0.0151368572    -2.4622106405
          14
Energy: -53.991792179172805 Kcal/mole
 H      0.6137738184     1.3997132145    -1.9985648450
 F      1.1350555864     2.0118898623    -1.5576634160
 H     -1.6182964562    -2.2411881954     1.3461536448
 F     -2.0375230339    -2.4749285747     0.5648064034
 H      0.0844751740    -1.3638691190     2.3999787207
 F     -0.7509877960    -1.6559580846     2.6399259272
 H      1.4018704269     1.8363524647     0.0687201587
 F      1.4882273415     1.6598507444     0.9644202346
 H      1.5119552352     0.0809742147     1.4796706269
 F      1.4531030797    -0.8010357724     1.7235636492
 H     -2.2680824047    -1.2902189878    -0.5862184729
 F     -2.3088937293    -0.5886065001    -1.1752544250
 H     -1.0722260492    -0.1034465241    -2.1565376064
 F     -0.3133224353     0.1690984098    -2.5931994478
          14
Energy: -53.97210585375264 Kcal/mole
 H      0.6496312368     1.3851272534    -2.0579412914
 F      1.1544923960     2.0116375594    -1.6180673929
 H     -1.6427350605    -2.1568438969     1.4492135090
 F     -2.1122131543    -2.3645097981     0.6893752415
 H      0.0895671206    -1.2697078705     2.5164809997
 F     -0.7543646887    -1.5650883314     2.7199963176
 H      1.2191913432     1.8711252172     0.0377518004
 F      1.2253175171     1.7018438725     0.9389705842
 H      1.4802666321     0.2127297026     1.6114496103
 F      1.5268862818    -0.6431749838     1.9372452150
 H     -2.2879722277    -1.1598800922    -0.4147794540
 F     -2.3007559184    -0.4387320874    -0.9810577711
 H     -1.1299325974    -0.0508723140    -2.1026443662
 F     -0.3853996015     0.1719336308    -2.5893857032
          14
Energy: -53.92003921696684 Kcal/mole
 H      0.8597390872     1.1860994715    -1.8682688674
 F      1.3874276861     1.8099780813    -1.4520847461
 H     -1.7614957145    -2.1129685898     1.5428853949
 F     -2.3274506297    -2.2074168801     0.8275787793
 H      0.1205221968    -1.4142787196     2.5325386835
 F     -0.7042759572    -1.7411279862     2.7644148619
 H      1.3899073116     1.8668059563     0.2007719536
 F      1.3678385567     1.7618855475     1.1114824883
 H      1.4762078147     0.2281907918     1.7052090258
 F      1.4953809846    -0.6500219833     1.9683890233
 H     -2.3472137063    -1.0239210077    -0.3462943847
 F     -2.2163955739    -0.3309539568    -0.9324447772
 H     -0.9028000436    -0.1596107913    -1.9114180328
 F     -0.1274987499    -0.0563690687    -2.3901016974
          14
Energy: -54.030745941970466 Kcal/mole
 H      0.9419282952     1.1694776921    -1.8761409367
 F      1.4747237571     1.7962506096    -1.4709573910
 H     -1.8473139009    -2.0700955799     1.6134069560
 F     -2.3456069899    -2.2114774678     0.8567008312
 H      0.0125908167    -1.2848506206     2.5766720516
 F     -0.8262894635    -1.5690316425     2.8141799931
 H      1.4366793339     1.8503970076     0.1723085600
 F      1.3788073958     1.7611513971     1.0831186718
 H      1.4443262625     0.2108529836     1.6678571487
 F      1.3938388017    -0.6706190311     1.9155406233
 H     -2.2601707799    -0.9703814927    -0.2137054320
 F     -2.1281815118    -0.2545588830    -0.7714381857
 H     -0.8873532204    -0.1136048709    -1.8712965554
 F     -0.1307860310     0.0111377529    -2.3742223608
          14
Energy: -53.98239128558002 Kcal/mole
 H      0.8275872564     1.2404667869    -1.8705921990
 F      1.3376712885     1.8976696377    -1.4848621209
 H     -1.7300973145    -2.0811554613     1.6057840448
 F     -2.2415183997    -2.2121238354     0.8559942352
 H      0.0665697437    -1.2710798299     2.5900407942
 F     -0.7405859653    -1.6267150059     2.8408640049
 H      1.5391868692     1.8902233300     0.1442684171
 F      1.5897478602     1.7648019119     1.0512425369
 H      1.5356990196     0.2190313720     1.6458894604
 F      1.4387486979    -0.6537265821     1.9100545388
 H     -2.2855924120    -1.0129296427    -0.2557524582
 F     -2.1948185307    -0.3152806008    -0.8439147801
 H     -0.9030468804    -0.1414760963    -1.8061989420
 F     -0.1386594759    -0.0166185566    -2.2971281534
          14
Energy: -54.00178960419362 Kcal/mole
 H      0.7534994538     1.3032494895    -1.8005213046
 F      1.2390900020     1.9745821097    -1.4075794100
 H     -1.7362817756    -1.9131829473     1.5655817741
 F     -2.2155237958    -2.1413818761     0.8178242365
 H      0.0672836343    -1.0562056803     2.5671081225
 F     -0.8048880522    -1.2469305592     2.7764632510
 H      1.6439458856     1.9503572893     0.2205874352
 F      1.8205860847     1.8127662476     1.1098320277
 H      1.6819136428     0.2701793724     1.6367923773
 F      1.5367938246    -0.5961153521     1.9001603492
 H     -2.3554272005    -0.9887416207    -0.3545841234
 F     -2.3225379596    -0.3116881261    -0.9721647768
 H     -0.9753592620    -0.1184717081    -1.9084964824
 F     -0.1545321093     0.0143816154    -2.2951252189
          14
Energy: -54.0039594532271 Kcal/mole
 H      0.8470949090     1.0906153030    -1.7800486075
 F      1.4278707411     1.7181060158    -1.4486216348
 H     -1.7983484265    -1.9627369886     1.5757842557
 F     -2.2884120242    -2.2179501433     0.8439421171
 H      0.0374052758    -1.0506263121     2.5061453869
 F     -0.8205510747    -1.2809856405     2.7335975367
 H      1.8205624180     1.8307465067     0.1406817979
 F      1.9751269762     1.7658461594     1.0422286588
 H      1.7155929029     0.2489893439     1.6532350581
 F      1.5257933478    -0.6118993490     1.9056945348
 H     -2.4560128501    -1.0477863188    -0.3336305833
 F     -2.4394769706    -0.3760745467    -0.9576649252
 H     -1.0482597543    -0.2136738658    -1.8192795542
 F     -0.2339745870    -0.0956935787    -2.2241367119
          14
Energy: -53.98173947883049 Kcal/mole
 H      0.7250337006     1.2936767964    -1.8496509744
 F      1.3619865963     1.8399312478    -1.4798049484
 H     -1.7953387061    -1.8762052446     1.5220956246
 F     -2.2651406978    -2.1879579804     0.7989183847
 H      0.0039792677    -0.9581747206     2.5581944706
 F     -0.8818240961    -1.1466129857     2.7021820428
 H      1.7059725119     1.8279114389     0.1358275000
 F      1.8335705956     1.7516260087     1.0406966962
 H      1.7039418715     0.2759595819     1.7904447878
 F      1.5314147979    -0.5693618309     2.1011779816
 H     -2.4902553261    -1.0695577608    -0.3810339722
 F     -2.5113618694    -0.3879417616    -0.9940944451
 H     -1.1521879542    -0.0858820557    -1.8957870810
 F     -0.3566951463     0.1094415036    -2.3080114127
          14
Energy: -54.02003508336803 Kcal/mole
 H      0.5792836499     1.2817874353    -1.8436178950
 F      1.1049706243     1.9234574524    -1.4527191943
 H     -1.7416905648    -1.8124424169     1.6077681200
 F     -2.1817993761    -2.1241056225     0.8661083054
 H      0.0280758428    -0.9241215988     2.6597127529
 F     -0.8390463015    -1.1612232642     2.8407403392
 H      1.5769317866     1.9024033355     0.1211390692
 F      1.7816032086     1.8339983658     1.0123850336
 H      1.6694031116     0.3837909037     1.7780691581
 F      1.5213670756    -0.4528096392     2.1231399678
 H     -2.5157998833    -1.0828365628    -0.3910878963
 F     -2.5956092852    -0.4944188717    -1.0898611643
 H     -1.2270687003    -0.1596972021    -1.9453474552
 F     -0.4095517414     0.0382601068    -2.3105431914
          14
Energy: -54.03857697390856 Kcal/mole
 H      0.5431880923     1.3308248353    -1.8573427449
 F      1.0136675813     2.0103658105    -1.4601499536
 H     -1.8586732973    -1.7538530366     1.6058426071
 F     -2.3229534363    -2.0955871759     0.8927151776
 H     -0.0485961814    -0.7937809863     2.5552832722
 F     -0.9360517221    -0.9590040944     2.7165686955
 H      1.5438870561     1.9520317743     0.1099932688
 F      1.8167437503     1.8494620324     0.9794285295
 H      1.6824987294     0.3935003449     1.7549548262
 F      1.5001959748    -0.4365590268     2.0994198390
 H     -2.5392564598    -1.1362812102    -0.4194880024
 F     -2.5415115915    -0.5473437127    -1.1223653305
 H     -1.1597752459    -0.1767989539    -1.9862675238
 F     -0.3455641098     0.0263731992    -2.3559569909
          14
Energy: -53.95221368856245 Kcal/mole
 H      0.6038599269     1.3476683413    -1.8224414768
 F      0.9765995984     2.1209100640    -1.4998715222
 H     -1.8485421774    -1.6731492622     1.5855335983
 F     -2.2785033263    -2.0873485774     0.8895010288
 H     -0.1241103343    -0.6437928854     2.5625696165
 F     -1.0187785448    -0.7831096268     2.7076511061
 H      1.6441691209     2.0330597764     0.0193888309
 F      1.9593196601     1.8679752529     0.8645611434
 H      1.6851762935     0.4566084289     1.7150689871
 F      1.4535826379    -0.3589482664     2.0645266460
 H     -2.5246622677    -1.1510759763    -0.4799530839
 F     -2.5214977970    -0.5688766888    -1.1884183094
 H     -1.0372150911    -0.2655193834    -1.8139993792
 F     -0.1677238381    -0.1112274497    -2.0611187030
          14
Energy: -54.0003560562904 Kcal/mole
 H      0.4805432868     1.3350686259    -1.8293820513
 F      0.8839292823     2.0737958014    -1.4654440087
 H     -1.9917492261    -1.6283773960     1.6710030600
 F     -2.4750176768    -1.9527065478     0.9623767792
 H     -0.1737983430    -0.6839063310     2.5272808883
 F     -1.0317437748    -0.8653361382     2.7954261120
 H      1.5170547953     2.0947187810     0.0987990584
 F      1.7514503131     1.9774720391     0.9775487057
 H      1.5511875149     0.4719834550     1.6139026359
 F      1.3190167635    -0.3720022289     1.8871679054
 H     -2.6023090625    -1.0547169554    -0.3908840137
 F     -2.5701853084    -0.5035557103    -1.1230577270
 H     -1.1180201975    -0.2475266955    -1.8915582882
 F     -0.2943554985    -0.0716237698    -2.2542201477
          14
Energy: -53.99762746850112 Kcal/mole
 H      0.4724682320     1.2950862542    -1.7833567687
 F      0.8818948011     2.0329743730    -1.4244974527
 H     -1.8436737853    -1.8338626792     1.5593792527
 F     -2.2071489353    -2.2594926724     0.8330088760
 H     -0.1473804339    -0.6739367433     2.5628435545
 F     -1.0242856408    -0.9124686835     2.6854354449
 H      1.5969008679     2.0421993039     0.0635296075
 F      1.9027539424     1.9691892722     0.9249310424
 H      1.6046695809     0.5530910443     1.7385693399
 F      1.3975371280    -0.2549408665     2.1194493447
 H     -2.4991678499    -1.2595515666    -0.4783825208
 F     -2.5701569040    -0.6728950000    -1.1795840803
 H     -1.1475303970    -0.3170935976    -1.9262303693
 F     -0.3116379839    -0.1015600092    -2.2356138626
          14
Energy: -54.03102824870835 Kcal/mole
 H      0.5059121267     1.2430374896    -1.7746734636
 F      0.8817015393     2.0042636844    -1.4279660974
 H     -1.8268395943    -1.7661844639     1.6101288833
 F     -2.2063502229    -2.1897550137     0.8907898311
 H     -0.1882156815    -0.6868322810     2.5917061700
 F     -1.0683421240    -0.8821143522     2.7594302226
 H      1.6213487942     1.9981067255     0.0689692504
 F      1.9754054736     1.8824805449     0.9069211906
 H      1.6280826608     0.5042659261     1.7181117715
 F      1.3550196083    -0.2976107479     2.0692803479
 H     -2.4805632007    -1.2572297029    -0.4467749563
 F     -2.5196837058    -0.6779539923    -1.1565624154
 H     -1.0658895883    -0.3808163857    -1.8555070746
 F     -0.2093369624    -0.2121671772    -2.1361563994
          14
Energy: -54.043686929195786 Kcal/mole
 H      0.4921769433     1.1906455096    -1.7039918225
 F      0.8281521800     1.9816247574    -1.3840520315
 H     -1.9351915473    -1.7329167952     1.6722039024
 F     -2.3967173535    -2.1365721108     0.9903349148
 H     -0.1466420063    -0.6806920443     2.5742493554
 F     -1.0298361367    -0.8547662990     2.7490500470
 H      1.3868261682     2.0837557385     0.1736082547