          14
Energy: -54.0945549695066 Kcal/mole
 H      0.8704358078     0.9354422924    -1.9793347980
 F      1.1783198500     1.7531937557    -1.7011640578
 H     -1.7646506742    -1.9339959674     1.4152911743
 F     -2.0776502255    -2.4067476006     0.6945789056
 H     -0.2005023954    -0.7407632921     2.4241223628
 F     -1.0848238892    -0.9493147235     2.5481013771
 H      1.5818571260     1.9216259226    -0.1053154185
 F      1.7298950001     1.8841629855     0.7988805316
 H      1.5315114014     0.4594482088     1.6131417378
 F      1.3476526028    -0.3551464432     1.9919827269
 H     -2.1812556773    -1.6453040296    -0.7624985307
 F     -2.1201416546    -1.1575949770    -1.5366393165
 H     -0.6029798328    -0.8107511846    -2.0533907963
 F      0.2605462803    -0.5842763503    -2.2629636988
          14
Energy: -54.09513644390789 Kcal/mole
 H      0.8756245216     0.9386649278    -1.9940698954
 F      1.1780446008     1.7530228024    -1.7003823949
 H     -1.8171154477    -1.9365915705     1.4409512605
 F     -2.1489562231    -2.4003668724     0.7228404271
 H     -0.2062662023    -0.7726885790     2.4179531504
 F     -1.0876489668    -0.9830766588     2.5586310747
 H      1.5701063119     1.9060637156    -0.1038135702
 F      1.7305183536     1.8849885246     0.7988008620
 H      1.5220524118     0.4554250014     1.6225081435
 F      1.3316795130    -0.3589059642     1.9986892672
 H     -2.2000738907    -1.6168692919    -0.7339083093
 F     -2.1166790530    -1.1229648896    -1.5020181598
 H     -0.5994090837    -0.7925772557    -2.0784245818
 F      0.2668140160    -0.5831698351    -2.2945150112
          14
Energy: -54.092048646544896 Kcal/mole
 H      0.8707728906     0.9372186875    -2.0000132506
 F      1.1898078071     1.7470764155    -1.7115064355
 H     -1.8103059201    -1.8809290173     1.4431948413
 F     -2.1353085713    -2.3662817114     0.7363037330
 H     -0.2008759695    -0.7245645395     2.4189576788
 F     -1.0895675867    -0.9045462748     2.5557889048
 H      1.5615920417     1.9065616827    -0.1022449252
 F      1.7309700160     1.8849621086     0.7987176490
 H      1.5489244024     0.4518525125     1.6130100141
 F      1.3452711100    -0.3660427806     1.9742047345
 H     -2.1944708561    -1.5965554758    -0.7233153209
 F     -2.1190179551    -1.1040295207    -1.4931296123
 H     -0.6110087691    -0.8023647165    -2.0719229044
 F      0.2541974732    -0.5791000670    -2.2779812812
          14
Energy: -54.08227153437534 Kcal/mole
 H      0.8792418827     0.9275312054    -1.9812395912
 F      1.1893585466     1.7475903141    -1.7125023348
 H     -1.8145865069    -1.8619963235     1.4299502421
 F     -2.1485326181    -2.3482169970     0.7278402425
 H     -0.2025841303    -0.7035343477     2.4279170570
 F     -1.0888642439    -0.8990014028     2.5590246106
 H      1.6133262328     1.8911567038    -0.1217140780
 F      1.7855817887     1.8793030325     0.7788837867
 H      1.5743491649     0.4399479198     1.5779458299
 F      1.3479518262    -0.3707819061     1.9417457674
 H     -2.1924039429    -1.5951853063    -0.7300009410
 F     -2.1092228366    -1.1148952811    -1.5067192910
 H     -0.5951354536    -0.8022280286    -2.0772167630
 F      0.2707614676    -0.5831128825    -2.2848223375
          14
Energy: -54.064940949695 Kcal/mole
 H      0.8807151169     0.9616647643    -1.9901660807
 F      1.1874586460     1.7770813861    -1.7039963057
 H     -1.8377199979    -1.8802855830     1.4498203333
 F     -2.1739257573    -2.3369951933     0.7292157128
 H     -0.2084019726    -0.6929127955     2.4068035643
 F     -1.0885556208    -0.8995648516     2.5601446326
 H      1.5883570822     1.9271684003    -0.1157782052
 F      1.7703452391     1.8824768543     0.7818698196
 H      1.5705300360     0.4591004051     1.5793699090
 F      1.3489594427    -0.3456841758     1.9589976879
 H     -2.2053273263    -1.5929689841    -0.7465036661
 F     -2.1121577882    -1.1491836352    -1.5435375432
 H     -0.5901908690    -0.7796676116    -2.0898070165
 F      0.2798739738    -0.5521551977    -2.2690115666
          14
Energy: -54.10221760693942 Kcal/mole
 H      0.8562145052     0.9679895229    -1.9871285115
 F      1.1602752511     1.7828673118    -1.6965940867
 H     -1.8016202699    -1.8819912543     1.4363576265
 F     -2.1312314921    -2.3558575464     0.7238296064
 H     -0.2010474684    -0.6983180905     2.4339045274
 F     -1.0816250793    -0.9197895922     2.5620546155
 H      1.6008932626     1.9393674416    -0.1091394197
 F      1.7858481706     1.9008974049     0.7881903626
 H      1.5504530233     0.4941619366     1.6038108447
 F      1.3494024605    -0.3080279793     1.9999913719
 H     -2.1648679619    -1.6098651907    -0.7424701451
 F     -2.1007553677    -1.1331702661    -1.5232009079
 H     -0.5956249392    -0.7810608440    -2.0929668530
 F      0.2653164826    -0.5481457370    -2.3060851796
          14
Energy: -54.09526075391712 Kcal/mole
 H      0.8468309604     0.9764912404    -2.0005369525
 F      1.1607730265     1.7824163153    -1.6958827999
 H     -1.8281295941    -1.8743614690     1.4395042349
 F     -2.1681799268    -2.3648482209     0.7433163885
 H     -0.2107895155    -0.6554855042     2.4086997656
 F     -1.0965934843    -0.8585378558     2.5312153626
 H      1.6016295597     1.9395494241    -0.1105521873
 F      1.7819381813     1.9105520794     0.7880784126
 H      1.5548971396     0.4965271852     1.6109568351
 F      1.3491667104    -0.3081534503     1.9996122936
 H     -2.1990011312    -1.6164161105    -0.7359923683
 F     -2.1089277710    -1.1419120741    -1.5154933043
 H     -0.6022518089    -0.7737112018    -2.0753793110
 F      0.2607671984    -0.5490187095    -2.2889219928
          14
Energy: -54.09611863520051 Kcal/mole
 H      0.8361708998     0.9568472006    -1.9701800417
 F      1.1183187376     1.7826096245    -1.6884035044
 H     -1.7616401738    -1.9108449421     1.4703978826
 F     -2.0885533338    -2.3914542894     0.7611507881
 H     -0.1820739011    -0.6893002870     2.4325871206
 F     -1.0665184870    -0.8956081020     2.5594092795
 H      1.5813775073     1.9452645515    -0.1060328148
 F      1.7830125058     1.9102489051     0.7878386703
 H      1.5610760639     0.5096749223     1.6216159875
 F      1.3663624509    -0.2990866538     2.0074661163
 H     -2.1659472396    -1.6393748756    -0.7186272650
 F     -2.0968708113    -1.1701947395    -1.5034759428
 H     -0.5882268371    -0.8000201743    -2.0688444142
 F      0.2700518062    -0.5610368158    -2.2859474426
          14
Energy: -54.08836387459594 Kcal/mole
 H      0.8456936055     0.9668621281    -1.9939751429
 F      1.1332168932     1.7862683179    -1.6993688716
 H     -1.7484654519    -1.8943155084     1.4475127881
 F     -2.0844343715    -2.3927587415     0.7550041394
 H     -0.1850153093    -0.6789540854     2.4358647199
 F     -1.0652419804    -0.8965609822     2.5727487798
 H      1.5824207753     1.9433678449    -0.1063396340
 F      1.7829571629     1.9103495210     0.7878549464
 H      1.5626391583     0.4916164386     1.5909949736
 F      1.3520771134    -0.3239756754     1.9534341116
 H     -2.1663492573    -1.6469653766    -0.7232533431
 F     -2.0968494852    -1.1697920810    -1.5032305400
 H     -0.5871035431    -0.8015176911    -2.0779061624
 F      0.2694350891    -0.5607562635    -2.2998622536
          14
Energy: -54.09892397300972 Kcal/mole
 H      0.8537737999     0.9608689688    -1.9848626514
 F      1.1327882576     1.7865862411    -1.6998522682
 H     -1.7676056341    -1.8876322176     1.4720725793
 F     -2.0914270582    -2.3748602902     0.7659298950
 H     -0.1727892997    -0.6892936419     2.4354256121
 F     -1.0605401904    -0.8818611412     2.5607456595
 H      1.5900076090     1.9399415868    -0.1110365365
 F      1.7755486211     1.9204392225     0.7867848213
 H      1.5607261525     0.5017852177     1.6209143945
 F      1.3701558142    -0.3125010420     1.9970923224
 H     -2.1449953453    -1.6390344272    -0.7110299857
 F     -2.0735780272    -1.1719592221    -1.4969239477
 H     -0.5643529469    -0.8089484892    -2.0692549453
 F      0.2923258512    -0.5706862923    -2.2933566242
          14
Energy: -54.075773928277 Kcal/mole
 H      0.8806466259     0.9477710635    -1.9961504797
 F      1.1795996260     1.7696905282    -1.7205339034
 H     -1.7707371315    -1.8826844925     1.4657190444
 F     -2.0750143045    -2.3752394662     0.7545973953
 H     -0.1856605429    -0.6817675775     2.4283156507
 F     -1.0785255742    -0.8532172589     2.5478398846
 H      1.5124127219     1.9440166486    -0.1070355004
 F      1.6310366332     1.9336964983     0.8022009167
 H      1.5187691335     0.5067990722     1.6130969525
 F      1.3723815371    -0.3127670154     1.9975070197
 H     -2.1469487032    -1.6312532873    -0.7066390190
 F     -2.0734744061    -1.1723719935    -1.4971568783
 H     -0.5688977779    -0.7966857081    -2.0740467202
 F      0.2925669439    -0.5713368045    -2.2931024316
          14
Energy: -54.08421434487063 Kcal/mole
 H      0.8889470810     0.9466617689    -2.0016538646
 F      1.1791593061     1.7697493737    -1.7202419615
 H     -1.7756596005    -1.8962522538     1.4688595367
 F     -2.1076536454    -2.3826459118     0.7659440627
 H     -0.1828576493    -0.6864696899     2.4343901247
 F     -1.0751655247    -0.8694823510     2.5401352018
 H      1.5444594181     1.9648171570    -0.1086547951
 F      1.6957451183     1.9356147689     0.7953080677
 H      1.5411873310     0.4992379080     1.6063427383
 F      1.3711923035    -0.3123659131     1.9978653151
 H     -2.1480711553    -1.6414081102    -0.7127322869
 F     -2.0734148626    -1.1718333037    -1.4968336445
 H     -0.5691218984    -0.8045426868    -2.0833681505
 F      0.2925788330    -0.5709200099    -2.2926079512
          14
Energy: -54.08835607234454 Kcal/mole
 H      0.8852687343     0.9496148771    -2.0115920549
 F      1.1927818667     1.7631623683    -1.7209631625
 H     -1.7682896939    -1.8702734240     1.4649282382
 F     -2.0980361483    -2.3711720903     0.7712014894
 H     -0.1815228813    -0.6475622363     2.4305274960
 F     -1.0681902364    -0.8469352371     2.5528402428
 H      1.5924758493     1.9689476800    -0.1153207429
 F      1.7501718470     1.9475857707     0.7877654330
 H      1.5790016546     0.5150314976     1.6219871542
 F      1.3846378745    -0.2943493588     2.0067134860
 H     -2.1374670777    -1.6470424260    -0.7151977752
 F     -2.0739773844    -1.1715344162    -1.4967028561
 H     -0.5667185842    -0.7956656298    -2.0646533749
 F      0.2924513428    -0.5713909173    -2.2936007268
          14
Energy: -54.08770276839495 Kcal/mole
 H      0.8880399353     0.9487137034    -2.0119859605
 F      1.1926348609     1.7632101734    -1.7209422668
 H     -1.7820504861    -1.8669814235     1.4689280577
 F     -2.0973061701    -2.3713467233     0.7709893083
 H     -0.1765243517    -0.6458480360     2.4265324757
 F     -1.0652394772    -0.8309113924     2.5562474700
 H      1.5596551422     1.9619014466    -0.1146679131
 F      1.7154723050     1.9457356692     0.7888522469
 H      1.5714632675     0.5177171822     1.6239216237
 F      1.3850377685    -0.2944918281     2.0066108669
 H     -2.1475836635    -1.6394045319    -0.7149943868
 F     -2.0850885504    -1.1870099893    -1.5101814961
 H     -0.5762751628    -0.8102259483    -2.0578821451
 F      0.2824042422    -0.5764455276    -2.2790277857
          14
Energy: -54.08382271024384 Kcal/mole
 H      0.8864686178     0.9505873293    -2.0155510809
 F      1.1927182156     1.7631107819    -1.7207531454
 H     -1.7486607985    -1.8822814833     1.4439223415
 F     -2.0741962332    -2.3833490064     0.7483312130
 H     -0.1752802350    -0.6495997827     2.4124072810
 F     -1.0619754386    -0.8487239273     2.5349233657
 H      1.5732235542     1.9625022503    -0.1247644595
 F      1.7326960767     1.9380942116     0.7779324787
 H      1.5509297804     0.5164021472     1.5855459241
 F      1.3638441364    -0.2921745247     1.9755353182
 H     -2.1481386590    -1.6553279955    -0.7187188427
 F     -2.0854349285    -1.1933303082    -1.5083487428
 H     -0.5770490596    -0.8088757479    -2.0594715236
 F      0.2824452956    -0.5765171526    -2.2789434728
          14
Energy: -54.0826069898953 Kcal/mole
 H      0.8629064893     0.9366602372    -1.9833730598
 F      1.1509458373     1.7584602359    -1.6960281517
 H     -1.7783701210    -1.8739408831     1.4548859879
 F     -2.0961554625    -2.3935799086     0.7694104158
 H     -0.1735937550    -0.6522038158     2.3737185227
 F     -1.0631892859    -0.8294091548     2.5082809961
 H      1.5469629005     1.9741843747    -0.1099686359
 F      1.7180558648     1.9639877173     0.7908710978
 H      1.5576098493     0.5164166407     1.5698604233
 F      1.3674916872    -0.3060421590     1.9280581442
 H     -2.1649326247    -1.6606994028    -0.7101035454
 F     -2.1000247471    -1.1758726083    -1.4857445363
 H     -0.5842500690    -0.8218148038    -2.0562409683
 F      0.2849109362    -0.6108435807    -2.2585755675
          14
Energy: -54.096112899393034 Kcal/mole
 H      0.8366437307     0.9534549658    -2.0005905427
 F      1.1429813896     1.7647906296    -1.7026296738
 H     -1.7698508081    -1.9066849377     1.4745814982
 F     -2.0966073924    -2.3918429122     0.7683656145
 H     -0.1646426513    -0.6766861494     2.4103603790
 F     -1.0467434834    -0.8778693311     2.5597339024
 H      1.5457582210     1.9608393591    -0.1097859312
 F      1.7181197702     1.9646956396     0.7908614057
 H      1.5482107747     0.5241766951     1.5832824219
 F      1.3750365259    -0.3036913073     1.9375905507
 H     -2.1640692963    -1.6532525272    -0.7054294919
 F     -2.1000705447    -1.1762676478    -1.4859924840
 H     -0.6162401864    -0.8028967567    -2.1250332889
 F      0.2325418685    -0.5561073270    -2.3690681238
          14
Energy: -54.093133762578546 Kcal/mole
 H      0.8547131231     0.9420322376    -2.0174617420
 F      1.1665617510     1.7471562370    -1.7085689144
 H     -1.7969916326    -1.8816042018     1.4786115902
 F     -2.1487569462    -2.3676400193     0.7851281021
 H     -0.1553721049    -0.7082828831     2.4414596034
 F     -1.0387349367    -0.9119333627     2.5796102079
 H      1.5545083657     1.9472734949    -0.1117956013
 F      1.7182859393     1.9576760535     0.7904004379
 H      1.5557908949     0.5201777866     1.5777974408
 F      1.3746344181    -0.3034791745     1.9378815162
 H     -2.1804373146    -1.6455278545    -0.7022788012
 F     -2.0992022591    -1.1766774239    -1.4861596209
 H     -0.6085401760    -0.8078384049    -2.1043525592
 F      0.2321334008    -0.5558451839    -2.3701651887
          14
Energy: -54.072783811215075 Kcal/mole
 H      0.8489776756     0.9455407355    -2.0207210909
 F      1.1668660033     1.7469701193    -1.7083960135
 H     -1.7804323685    -1.9011300108     1.4833819523
 F     -2.1496353769    -2.3666042202     0.7848750454
 H     -0.1513675103    -0.7343466261     2.4830074253
 F     -1.0227961194    -0.9808361154     2.6270355853
 H      1.5043904258     1.9663680164    -0.1093941100
 F      1.6692896919     1.9700481945     0.7926500620
 H      1.5197033066     0.5315346356     1.6067766455
 F      1.3528934703    -0.2865470120     1.9859941243
 H     -2.1772289489    -1.6403844618    -0.6989023158
 F     -2.0993724555    -1.1769502690    -1.4863387356
 H     -0.6116270309    -0.8026910349    -2.1093564069
 F      0.2322971513    -0.5561182400    -2.3698997462
          14
Energy: -54.088840883319946 Kcal/mole
 H      0.8777146069     0.9300422614    -2.0220443109
 F      1.2003860565     1.7362846060    -1.7275185609
 H     -1.7500413864    -1.9588432182     1.4883494627
 F     -2.0893100004    -2.4264941180     0.7762480350
 H     -0.1432437980    -0.7784486027     2.4913242840
 F     -1.0155473967    -1.0151714793     2.6460424518
 H      1.5097354507     1.9429491481    -0.1160436409
 F      1.6224561293     1.9549756353     0.7939225191
 H      1.5109590015     0.5256489214     1.6155117583
 F      1.3698603771    -0.2971898798     1.9948750214
 H     -2.1510739802    -1.6707611113    -0.6908314781
 F     -2.0892271595    -1.1899664785    -1.4692275802
 H     -0.6123207249    -0.7900228499    -2.0993715765
 F      0.2333564108    -0.5554578934    -2.3652634028
          14
Energy: -54.09692655373206 Kcal/mole
 H      0.8488925396     0.9717358295    -2.0388982405
 F      1.1764755909     1.7681194542    -1.7236975636
 H     -1.7595915551    -1.9622844455     1.4950500095
 F     -2.0888033860    -2.4263115689     0.7758925865
 H     -0.1388529838    -0.7580201557     2.4687190308
 F     -1.0108857656    -1.0001031299     2.6165150429
 H      1.5068764411     1.9541622622    -0.1157601544
 F      1.6226077932     1.9543808055     0.7939074808
 H      1.5154749139     0.5307939401     1.6188327221
 F      1.3800028194    -0.2915690856     2.0012662006
 H     -2.1397925764    -1.6681387691    -0.6884100779
 F     -2.0898256119    -1.1901055877    -1.4693560299
 H     -0.6309371204    -0.7845058270    -2.1362641438
 F      0.2071146988    -0.5191422579    -2.3973011613
          14
Energy: -54.08697223787189 Kcal/mole
 H      0.8274354305     0.9813732143    -2.0579271214
 F      1.1298159944     1.7832211576    -1.7315916031
 H     -1.7307003295    -1.9762751075     1.4925305914
 F     -2.0610980759    -2.4434954551     0.7759892625
 H     -0.1392011986    -0.7584195201     2.4660369651
 F     -1.0108672936    -1.0000819446     2.6166573203
 H      1.4634511183     1.9459250321    -0.1385944218
 F      1.6086612505     1.9376340453     0.7667973592
 H      1.5048984629     0.5150007390     1.6034837233
 F      1.3806582370    -0.3050044848     1.9946931291
 H     -2.1322185788    -1.6647879232    -0.6826963492
 F     -2.0867126483    -1.1657165322    -1.4506455383
 H     -0.6303793477    -0.7641760438    -2.1155097937
 F      0.2070851102    -0.5202207059    -2.3984021316
          14
Energy: -54.091481787630045 Kcal/mole
 H      0.8433302018     0.9719310698    -2.0654394594
 F      1.1656286130     1.7785028132    -1.7714075619
 H     -1.6713802350    -1.9970117858     1.4806840146
 F     -1.9925358648    -2.4706825753     0.7641757839
 H     -0.1303668702    -0.7562019551     2.4892354145
 F     -0.9964809739    -1.0223362809     2.6303307019
 H      1.4607702980     1.9642514170    -0.1531249478
 F      1.5906911207     1.9474841384     0.7544699167
 H      1.5141131547     0.5180998511     1.5833764287
 F      1.3842130419    -0.2990776319     1.9786433285
 H     -2.1028879502    -1.6700265074    -0.6849749556
 F     -2.0882685704    -1.1654386374    -1.4505246635
 H     -0.6281430592    -0.7667269511    -2.1109639456
 F      0.2182318493    -0.5310097035    -2.3735965663
          14
Energy: -54.09145521765497 Kcal/mole
 H      0.8241716241     0.9783806853    -2.0596939517
 F      1.1192960632     1.7932917828    -1.7601768927
 H     -1.6828934772    -1.9980640923     1.4864177980
 F     -1.9919251139    -2.4706267528     0.7638716199
 H     -0.1256220864    -0.7797469472     2.4890436796
 F     -0.9921026043    -1.0354564727     2.6462478485
 H      1.4496019571     1.9609057661    -0.1466188723
 F      1.5935308415     1.9304979664     0.7585047888
 H      1.5043245122     0.5149182594     1.5852219719
 F      1.3715744296    -0.3081244203     1.9671475707
 H     -2.1141458590    -1.6647483824    -0.6818241908
 F     -2.0876713644    -1.1657186298    -1.4506918043
 H     -0.6241677428    -0.7786455171    -2.1034271863
 F      0.2201763636    -0.5410763473    -2.3708835743
          14
Energy: -54.09256127315456 Kcal/mole
 H      0.8117643021     0.9823037410    -2.0578385238
 F      1.1199542429     1.7930836738    -1.7602753188
 H     -1.6751423502    -1.9925523987     1.4793960279
 F     -1.9923362932    -2.4709191354     0.7642441086
 H     -0.1258165501    -0.7650490502     2.4617363587
 F     -0.9965377216    -1.0064647316     2.6181080639
 H      1.4364640763     1.9606236261    -0.1528331338
 F      1.5708005566     1.9435695892     0.7541133199
 H      1.4919616526     0.5025710188     1.5780473208
 F      1.3778976165    -0.3229216536     1.9607224357
 H     -2.1196621294    -1.6808856127    -0.6927691251
 F     -2.0873787390    -1.1648625870    -1.4501112008
 H     -0.6209070189    -0.7858011054    -2.0996392286
 F      0.2200033898    -0.5406967598    -2.3710845167
          14
Energy: -54.09841583952459 Kcal/mole
 H      0.8228072249     0.9692246888    -2.0643803089
 F      1.1232295058     1.7815643766    -1.7631500236
 H     -1.6978764777    -1.9852184254     1.4841369996
 F     -1.9911303003    -2.4713081858     0.7639926110
 H     -0.1254410342    -0.7650338941     2.4638664884
 F     -0.9965576419    -1.0064655356     2.6179950655
 H      1.4507753400     1.9603135799    -0.1548374506
 F      1.5700413772     1.9435860364     0.7542196442
 H      1.5122863543     0.5064067965     1.5749746576
 F      1.3833630912    -0.3160168634     1.9595355966
 H     -2.1214249432    -1.6842871735    -0.6802220900
 F     -2.0846228283    -1.1831320161    -1.4472801795
 H     -0.6189187261    -0.7919150383    -2.1081158287
 F      0.2204965171    -0.5391850623    -2.3771857242
          14
Energy: -54.09455058105614 Kcal/mole
 H      0.8247054830     0.9702836798    -2.0690823940
 F      1.1231288076     1.7815081996    -1.7629005889
 H     -1.6827859232    -1.9866453832     1.4787659977
 F     -1.9919308194    -2.4712324890     0.7642775303
 H     -0.1234145072    -0.7580809709     2.4971059195
 F     -0.9975220720    -1.0042990878     2.6243914413
 H      1.4534737528     1.9413266775    -0.1517170897
 F      1.5969677856     1.9359038136     0.7539699728
 H      1.5281331624     0.5168670999     1.6144122486
 F      1.4021776818    -0.3023185157     2.0067885275
 H     -2.1125683947    -1.6872078101    -0.6817666921
 F     -2.0850926478    -1.1829770831    -1.4471982419
 H     -0.6242781284    -0.7996286804    -2.1194113756
 F      0.2100957682    -0.5449228494    -2.4019607345
          14
Energy: -54.10511378909467 Kcal/mole
 H      0.8394469181     0.9472182633    -2.0698336467
 F      1.1600761793     1.7551626996    -1.7777520404
 H     -1.6770132798    -1.9948647068     1.4817619216
 F     -1.9922370448    -2.4707964728     0.7641186034
 H     -0.1133538890    -0.7568029733     2.4793662819
 F     -0.9867125284    -0.9997249497     2.6176507726
 H      1.4714353892     1.9395784999    -0.1552250803
 F      1.5816746696     1.9288333162     0.7550610516
 H      1.5177405286     0.5138370982     1.6050257220
 F      1.4027289870    -0.3021577811     2.0072864610
 H     -2.1160174549    -1.6847868825    -0.6846922021
 F     -2.0906130826    -1.1817245450    -1.4509636308
 H     -0.6264090797    -0.7972231525    -2.1235873818
 F      0.2102088103    -0.5450504571    -2.4017392070
          14
Energy: -54.09537739922715 Kcal/mole
 H      0.8395784183     0.9494655692    -2.0761141658
 F      1.1600692036     1.7550434852    -1.7774188733
 H     -1.6882053439    -1.9888673047     1.4825818337
 F     -1.9916433316    -2.4711146212     0.7640751090
 H     -0.1193530244    -0.7615730896     2.4670912615
 F     -0.9897182431    -1.0105559817     2.6132449664
 H      1.4682578023     1.9284264730    -0.1548940625
 F      1.5818432333     1.9294249054     0.7550434919
 H      1.5035872774     0.5222954449     1.5933367809
 F      1.3869382101    -0.2983964470     1.9854423964
 H     -2.1159629585    -1.6768539681    -0.6795438400
 F     -2.0906159735    -1.1821453678    -1.4512367395
 H     -0.6263603482    -0.7898451215    -2.1169386057
 F      0.2102062252    -0.5454418446    -2.4020919092
          14
Energy: -54.099819949815625 Kcal/mole
 H      0.8510912532     0.9508924295    -2.0757686746
 F      1.1620468151     1.7615914213    -1.7808741457
 H     -1.6802813060    -2.0056599742     1.4902109661
 F     -1.9920636835    -2.4702238089     0.7636704011
 H     -0.1198136630    -0.7611893244     2.4650186367
 F     -0.9896938073    -1.0105763395     2.6133549144
 H      1.4700633998     1.9499499730    -0.1619427884
 F      1.5928317029     1.9386598404     0.7467317830
 H      1.5255815012     0.5197996461     1.6006622468
 F      1.3904625401    -0.2914357310     2.0062840279
 H     -2.1187687883    -1.6489118480    -0.6626143542
 F     -2.0969683243    -1.1352965447    -1.4219647740
 H     -0.6337463772    -0.7724269720    -2.1244432445
 F      0.2105980370    -0.5463658371    -2.4016938055
          14
Energy: -54.10102292142871 Kcal/mole
 H      0.8473275286     0.9585925288    -2.0924117476
 F      1.1824698195     1.7565446164    -1.7893587642
 H     -1.6851949267    -1.9950303319     1.4854066594
 F     -1.9918030273    -2.4707876868     0.7639252585
 H     -0.1174421159    -0.7615618157     2.4790155858
 F     -0.9898196124    -1.0105565797     2.6126124086
 H      1.4682883636     1.9342949327    -0.1655757629
 F      1.5753863398     1.9292164454     0.7451345272
 H      1.5079509502     0.5213575804     1.5983188367
 F      1.3913978001    -0.2915183758     2.0064083403
 H     -2.1269497391    -1.6526371489    -0.6654305007
 F     -2.0965343438    -1.1350989261    -1.4218153839
 H     -0.6422427788    -0.7849547157    -2.1271341113
 F      0.1964959934    -0.5484097862    -2.4125334253
          14
Energy: -54.09088033807623 Kcal/mole
 H      0.8934504928     0.9203787453    -2.1080956860
 F      1.2392323513     1.7156319741    -1.8099410142
 H     -1.6833455972    -1.9810121416     1.4890857736
 F     -2.0217341308    -2.4468904456     0.7754054487
 H     -0.1077527837    -0.7389193055     2.4856431063
 F     -0.9768713641    -0.9964937589     2.6241252145
 H      1.5032893282     1.9272066405    -0.1788392947
 F      1.5814376074     1.9374475921     0.7347672778
 H      1.5067638833     0.5360298786     1.6130439515
 F      1.3964164324    -0.2697780683     2.0365837878
 H     -2.1433944707    -1.6301380727    -0.6589320529
 F     -2.1019938863    -1.1148194279    -1.4163102187
 H     -0.6285484565    -0.7863899867    -2.0968518398
 F      0.2180627643    -0.5724548610    -2.3767986257
          14
Energy: -54.09137325078531 Kcal/mole
 H      0.9066876544     0.9075248046    -2.0863927466
 F      1.2484157477     1.7147426754    -1.8171155301
 H     -1.6902466628    -1.9796964257     1.4914584422
 F     -2.0213680452    -2.4469602413     0.7752795841
 H     -0.1058342043    -0.7366222083     2.5031570509
 F     -0.9769731403    -0.9966156146     2.6231961402
 H      1.4765550890     1.9530991349    -0.1822111071
 F      1.5404791752     1.9571180846     0.7325492764
 H      1.5113498257     0.5595353576     1.6384380831
 F      1.4157755710    -0.2466149113     2.0649076667
 H     -2.1164374701    -1.6281894072    -0.6561253791
 F     -2.0893957297    -1.1051207295    -1.4088251217
 H     -0.6290397738    -0.7772508024    -2.0915636605
 F      0.2180888275    -0.5729396736    -2.3770791513
          14
Energy: -54.10081624260938 Kcal/mole
 H      0.9142799571     0.8994098503    -2.0878658110
 F      1.2676972396     1.6976407984    -1.8071300313
 H     -1.6885302687    -1.9896789701     1.4970792343
 F     -2.0214590959    -2.4464306904     0.7749814141
 H     -0.1084703301    -0.7277097411     2.5037101524
 F     -0.9768332999    -0.9970884004     2.6231667994
 H      1.4851717828     1.9381034640    -0.1825751206
 F      1.5400220795     1.9579135703     0.7325685865
 H      1.5145763726     0.5647177641     1.6309039367
 F      1.4139683927    -0.2385860974     2.0615661482
 H     -2.1286658708    -1.6247656071    -0.6543005521
 F     -2.0887470413    -1.1053023542    -1.4089219246
 H     -0.6298605003    -0.7820228596    -2.0975223028
 F      0.2181323652    -0.5726865270    -2.3767630591
          14
Energy: -54.09867700937487 Kcal/mole
 H      0.9237209095     0.8910722830    -2.0754580614
 F      1.2671964188     1.6980830870    -1.8077882337
 H     -1.6733626205    -1.9843632011     1.4974963949
 F     -2.0025386304    -2.4496987947     0.7791685172
 H     -0.1085113670    -0.7329027028     2.4923856678
 F     -0.9768311230    -0.9968129257     2.6237675372
 H      1.4913302136     1.9385642198    -0.1886212196
 F      1.5477893815     1.9655953562     0.7262397972
 H      1.5057417949     0.5744893994     1.6304910616
 F      1.4090488793    -0.2339427695     2.0523641566
 H     -2.1397562218    -1.6231108999    -0.6538360407
 F     -2.0881587238    -1.1053901326    -1.4089465658
 H     -0.6013105689    -0.8187984363    -2.0711663409
 F      0.2499602206    -0.6039529436    -2.3358708126
          14
Energy: -54.09791857250491 Kcal/mole
 H      0.9801398550     0.8636185971    -2.0906798390
 F      1.3554539407     1.6582839387    -1.8288873030
 H     -1.6389844427    -1.9849588292     1.4805118756
 F     -1.9408585852    -2.4572808023     0.7547895073
 H     -0.1095445311    -0.7288610398     2.4937531843
 F     -0.9767763160    -0.9970273266     2.6236949936
 H      1.5268333993     1.9200554055    -0.1963891645
 F      1.5626523398     1.9552959645     0.7192330865
 H      1.5268133588     0.5679109383     1.6233855664
 F      1.4079310816    -0.2335937974     2.0527410867
 H     -2.0989637162    -1.6331869817    -0.6592082458
 F     -2.0903226720    -1.1048556197    -1.4086615828
 H     -0.6034161070    -0.8086417786    -2.0699111666
 F      0.2500719145    -0.6044917308    -2.3359373967
          14
Energy: -54.094214537150705 Kcal/mole
 H      0.9915235152     0.8590867017    -2.0929312178
 F      1.3548500638     1.6585243453    -1.8287678726
 H     -1.6402714854    -1.9895485718     1.4840090229
 F     -1.9407903105    -2.4570373270     0.7546039917
 H     -0.1086553267    -0.7268755939     2.5042508975
 F     -0.9768234863    -0.9971326499     2.6231381141
 H      1.5125943669     1.9290796613    -0.1972515911