          14
Energy: -54.109445507598906 Kcal/mole
 H      0.6042738063     1.0457811505    -1.9051017569
 F      0.8450878086     1.8562939788    -1.5501840603
 H     -1.7373645291    -1.8356374342     1.3503970069
 F     -2.0674101899    -2.3553162913     0.6707700893
 H     -0.1413178644    -0.5948382269     2.3996818909
 F     -1.0387906093    -0.7817012247     2.4223510819
 H      1.5419652986     1.9639805018    -0.0494890243
 F      1.8766470274     1.9200086672     0.8031208619
 H      1.6635073869     0.5610386523     1.7255367098
 F      1.4517220773    -0.2150927523     2.1656003704
 H     -2.2298987332    -1.6898410685    -0.8395793682
 F     -2.2098693811    -1.2510570070    -1.6445367413
 H     -0.7222479668    -0.7697614079    -2.1705826331
 F      0.1275300289    -0.4753657523    -2.3497405410
