          14
Energy: -54.116549228164814 Kcal/mole
 H      0.8903784068     0.8772190952    -2.0674259219
 F      1.2287709157     1.6782125239    -1.7762403504
 H     -1.6474239040    -2.0156698814     1.4760579473
 F     -1.9809796560    -2.4712490335     0.7535088511
 H     -0.0843669909    -0.7554872094     2.4829764859
 F     -0.9420679234    -1.0486374873     2.6219046144
 H      1.4685631449     1.9573218651    -0.1625596818
 F      1.5516799773     2.0039834989     0.7494728198
 H      1.5144272152     0.5968150434     1.6178757431
 F      1.4102449663    -0.2178925369     2.0256583048
 H     -2.1239306945    -1.6243295090    -0.6579641715
 F     -2.1045811069    -1.0949872834    -1.4065036839
 H     -0.6386980667    -0.7974047826    -2.1000256669
 F      0.2076742754    -0.5966693582    -2.3902809821
          14
Energy: -54.11595234260149 Kcal/mole
 H      0.8865914016     0.8801874362    -2.0711236935
 F      1.2289718076     1.6780550603    -1.7760441921
 H     -1.6576064191    -2.0026736756     1.4781259820
 F     -1.9908224666    -2.4582708841     0.7554315450
 H     -0.0828884509    -0.7593084262     2.4841099492
 F     -0.9421463565    -1.0484347806     2.6218444868
 H      1.4660037617     1.9615219937    -0.1625273574
 F      1.5518157466     2.0037606918     0.7494711051
 H      1.5091350459     0.5994471237     1.6218477785
 F      1.4105257036    -0.2180321627     2.0254475975
 H     -2.1302896792    -1.6247599581    -0.6584616968
 F     -2.1042437774    -1.0949644491    -1.4064772913
 H     -0.6405645933    -0.7939275096    -2.1031090601
 F      0.2077732903    -0.5968538195    -2.3901174153
          14
Energy: -54.114520269302105 Kcal/mole
 H      0.8843490944     0.8799253751    -2.0677843663
 F      1.2290907568     1.6780689620    -1.7762213357
 H     -1.6547520461    -2.0107957583     1.4818659953
 F     -1.9909738845    -2.4578400264     0.7552331459
 H     -0.0813214352    -0.7631245078     2.4859532803
 F     -0.9422294831    -1.0482323463     2.6217467024
 H      1.4682977429     1.9618710877    -0.1627562326
 F      1.5516940562     2.0037421732     0.7494832464
 H      1.5095645824     0.5968722629     1.6167798184
 F      1.4105029177    -0.2178955723     2.0257164411
 H     -2.1302362576    -1.6196597115    -0.6630459654
 F     -2.1058489248    -1.0938623813    -1.4139330579
 H     -0.6419355815    -0.7953818387    -2.1082151914
 F      0.2078460180    -0.5967766707    -2.3898465468
          14
Energy: -54.11583349763619 Kcal/mole
 H      0.8924813947     0.8759085872    -2.0662513023
 F      1.2286593571     1.6782820433    -1.7763026612
 H     -1.6526932146    -2.0044817148     1.4769795164
 F     -1.9910831007    -2.4581749718     0.7554923623
 H     -0.0845463480    -0.7572552656     2.4782355892
 F     -0.9420584089    -1.0485436960     2.6221561081
 H      1.4743676223     1.9608665513    -0.1632430450
 F      1.5513720631     2.0037954615     0.7495090707
 H      1.5085461818     0.5987288018     1.6202534070
 F      1.4105569415    -0.2179940574     2.0255321752
 H     -2.1318048859    -1.6167766766    -0.6610883507
 F     -2.1057657126    -1.0940153196    -1.4140369048
 H     -0.6371971573    -0.8022981221    -2.1131151884
 F      0.2112990249    -0.6008847564    -2.3966215991
          14
Energy: -54.114686445541196 Kcal/mole
 H      0.8806299070     0.8835674460    -2.0640862062
 F      1.2201340357     1.6844325437    -1.7738431322
 H     -1.6573491413    -2.0043622905     1.4790691118
 F     -1.9908361146    -2.4581813070     0.7553815141
 H     -0.0845408311    -0.7547829816     2.4833918773
 F     -0.9420587016    -1.0486748450     2.6218825789
 H      1.4669282572     1.9613293597    -0.1626049052
 F      1.5517667043     2.0037709106     0.7494752188
 H      1.5127785241     0.5957708952     1.6153813781
 F      1.4103324255    -0.2178371473     2.0257906251
 H     -2.1311962936    -1.6232434827    -0.6656008563
 F     -2.1057979971    -1.0936722705    -1.4137975268
 H     -0.6371771577    -0.8025682017    -2.1132473753
 F      0.2112979639    -0.6008704293    -2.3966145869
          14
Energy: -54.117263682461626 Kcal/mole
 H      0.8870850526     0.8816345744    -2.0747291775
 F      1.2219721056     1.6837403018    -1.7825544630
 H     -1.6430592213    -2.0078155344     1.4776436656
 F     -1.9738466032    -2.4610757823     0.7523686449
 H     -0.0869151341    -0.7562397844     2.4856148346
 F     -0.9430731110    -1.0523281497     2.6277914796
 H      1.4671107625     1.9614887155    -0.1626292622
 F      1.5517570228     2.0037624571     0.7494765109
 H      1.5119925243     0.5965014259     1.6166369036
 F      1.4103741210    -0.2178759002     2.0257240224
 H     -2.1279015417    -1.6225340596    -0.6649951368
 F     -2.1059727760    -1.0937099038    -1.4138296588
 H     -0.6380793096    -0.7993471092    -2.1136770471
 F      0.2113458210    -0.6010413008    -2.3965917938
          14
Energy: -54.116289588490915 Kcal/mole
 H      0.8893927064     0.8819573330    -2.0782283994
 F      1.2218496899     1.6837231802    -1.7823688373
 H     -1.6455126994    -2.0065905088     1.4779915349
 F     -1.9737164518    -2.4611407671     0.7523501912
 H     -0.0835172107    -0.7653516945     2.4874633991
 F     -0.9432533630    -1.0518447840     2.6276934175
 H      1.4676307919     1.9547163855    -0.1646436863
 F      1.5555891068     1.9956322476     0.7472105932
 H      1.5090320254     0.5985573543     1.6200257843
 F      1.4105311686    -0.2179849625     2.0255442501
 H     -2.1313440317    -1.6208631968    -0.6639270867
 F     -2.1057901599    -1.0937985392    -1.4138863164
 H     -0.6375463108    -0.7965744229    -2.1101709989
 F      0.2113175467    -0.6011883854    -2.3967777816
          14
Energy: -54.11606048138144 Kcal/mole
 H      0.8839111427     0.8824128000    -2.0732043047
 F      1.2221404742     1.6836990187    -1.7826353539
 H     -1.6471892227    -2.0038011969     1.4769941532
 F     -1.9736275161    -2.4612887336     0.7524031000
 H     -0.0843523157    -0.7609711468     2.4914266570
 F     -0.9432090626    -1.0520771619     2.6274831758
 H      1.4741379656     1.9582465473    -0.1653978023
 F      1.5552439163     1.9954449806     0.7472505973
 H      1.5122608201     0.5954134812     1.6145450056
 F      1.4103598885    -0.2178181873     2.0258349927
 H     -2.1263275535    -1.6244316990    -0.6662946114
 F     -2.1060562725    -1.0936092384    -1.4137607247
 H     -0.6391531092    -0.7998150040    -2.1172553790
 F      0.2114027836    -0.6010164801    -2.3964019716
          14
Energy: -54.11623284963093 Kcal/mole
 H      0.8737694204     0.8783104937    -2.0678495616
 F      1.2081782736     1.6811447573    -1.7771317188
 H     -1.6486206461    -2.0029726563     1.4771139126
 F     -1.9735515824    -2.4613326858     0.7523967471
 H     -0.0893578122    -0.7488766917     2.4977918576
 F     -0.9493394602    -1.0368634375     2.6333802024
 H      1.4670515318     1.9518711649    -0.1644552536
 F      1.5556198352     1.9957831799     0.7472005973
 H      1.5123168336     0.5964566358     1.6166284364
 F      1.4103569171    -0.2178735242     2.0257244715
 H     -2.1226127549    -1.6208017812    -0.6636400006
 F     -2.1062533340    -1.0938017971    -1.4139015457
 H     -0.6381316837    -0.7992641627    -2.1137761915
 F      0.2113485993    -0.6010457009    -2.3965865344
          14
Energy: -54.11446190251391 Kcal/mole
 H      0.8864913197     0.8702887912    -2.0693694618
 F      1.2288293854     1.6700703664    -1.7794676150
 H     -1.6460890238    -1.9998995186     1.4740166990
 F     -1.9736858791    -2.4614957086     0.7525610471
 H     -0.0905519359    -0.7438747272     2.4731396603
 F     -0.9499821103    -1.0298720358     2.6162281459
 H      1.4703485061     1.9512796055    -0.1647405372
 F      1.5554449384     1.9958145608     0.7472157309
 H      1.5203992006     0.5954709630     1.6167661324
 F      1.4099281662    -0.2178212366     2.0257171671
 H     -2.1339162970    -1.6201861597    -0.6635439877
 F     -2.1056537072    -1.0938344544    -1.4139066389
 H     -0.6364309059    -0.7992333500    -2.1086993250
 F      0.2112583770    -0.6010473355    -2.3968558505
          14
Energy: -54.116175339951155 Kcal/mole
 H      0.8907551158     0.8696024226    -2.0724597025
 F      1.2286032008     1.6701067767    -1.7793036849
 H     -1.6500606772    -1.9969002580     1.4738830840
 F     -1.9734751921    -2.4616548125     0.7525681350
 H     -0.0893191548    -0.7436026656     2.4813412603
 F     -0.9500475065    -1.0298864680     2.6157930700
 H      1.4754519544     1.9534922694    -0.1653067553
 F      1.5551742122     1.9956971841     0.7472457675
 H      1.5123721726     0.5971840668     1.6180936718
 F      1.4103539815    -0.2179121128     2.0256467442
 H     -2.1254481894    -1.6237468932    -0.6657854973
 F     -2.1061029207    -1.0936455657    -1.4137877320
 H     -0.6365707113    -0.7970491098    -2.1076192250
 F      0.2112657934    -0.6011632044    -2.3969131473
          14
Energy: -54.116697381728045 Kcal/mole
 H      0.8901306468     0.8707169934    -2.0747710004
 F      1.2286363275     1.6700476513    -1.7791810759
 H     -1.6495801702    -1.9998349719     1.4755500388
 F     -1.9735006819    -2.4614991327     0.7524797070
 H     -0.0894377157    -0.7424862465     2.4829748022
 F     -0.9500412171    -1.0299456915     2.6157064144
 H      1.4734498966     1.9489437113    -0.1649071421
 F      1.5552804168     1.9959384746     0.7472245689
 H      1.5126781207     0.5951459774     1.6141200141
 F      1.4103377517    -0.2178039968     2.0258575376
 H     -2.1305263874    -1.6267485843    -0.6684505048
 F     -2.1065540152    -1.0981875772    -1.4174081719
 H     -0.6359476129    -0.8067269636    -2.1146390224
 F      0.2139447427    -0.6085137122    -2.3962122648
          14
Energy: -54.11654064263662 Kcal/mole
 H      0.8941729717     0.8678317187    -2.0715353085
 F      1.2284218915     1.6702007084    -1.7793527219
 H     -1.6471732691    -2.0007154802     1.4750290010
 F     -1.9736283624    -2.4614524238     0.7525073468
 H     -0.0891057159    -0.7453780769     2.4789620113
 F     -0.9500588289    -1.0297922866     2.6159192837
 H      1.4703194382     1.9541241360    -0.1648720541
 F      1.5554464804     1.9956636650     0.7472227076
 H      1.5128286913     0.5943943888     1.6126768894
 F      1.4103297643    -0.2177641268     2.0259340920
 H     -2.1249534510    -1.6218058577    -0.6648321166
 F     -2.1068496466    -1.0984497774    -1.4176001190
 H     -0.6344612109    -0.8052323924    -2.1091647542
 F      0.2138658925    -0.6085929957    -2.3965026621
          14
Energy: -54.11693821164724 Kcal/mole
 H      0.8928719652     0.8676959534    -2.0696647759
 F      1.2284909069     1.6702079105    -1.7794519493
 H     -1.6515589879    -2.0019313689     1.4777653851
 F     -1.9733957102    -2.4613879237     0.7523621879
 H     -0.0875927426    -0.7495392268     2.4799105164
 F     -0.9501390887    -1.0295715472     2.6158689677
 H      1.4728439411     1.9503608983    -0.1649244244
 F      1.5553125613     1.9958632961     0.7472254857
 H      1.5138641841     0.5971703813     1.6184428133
 F      1.4102748338    -0.2179113868     2.0256282230
 H     -2.1244718039    -1.6232350725    -0.6658164523
 F     -2.1068751969    -1.0983739609    -1.4175479023
 H     -0.6349485446    -0.8059356163    -2.1110929470
 F      0.2138917444    -0.6085556913    -2.3964003759
          14
Energy: -54.1168153180504 Kcal/mole
 H      0.8912508996     0.8709738395    -2.0767392060
 F      1.2285769006     1.6700340262    -1.7790766671
 H     -1.6486776692    -1.9996176447     1.4750061355
 F     -1.9735485575    -2.4615106614     0.7525085598
 H     -0.0897791776    -0.7427379230     2.4802460269
 F     -0.9500231033    -1.0299323406     2.6158511696
 H      1.4721217540     1.9535547134    -0.1650122597
 F      1.5553508717     1.9956938716     0.7472301452
 H      1.5115468081     0.5960241666     1.6155780893
 F      1.4103977652    -0.2178505827     2.0257801900
 H     -2.1290805409    -1.6259511230    -0.6678436108
 F     -2.1066307140    -1.0982298807    -1.4174403662
 H     -0.6371177984    -0.8020604931    -2.1123382025
 F      0.2112450322    -0.6074646820    -2.4009590230
          14
Energy: -54.116583074139214 Kcal/mole
 H      0.8926132759     0.8684460917    -2.0714331194
 F      1.2285046297     1.6701681174    -1.7793581428
 H     -1.6486077761    -1.9995862059     1.4749546031
 F     -1.9735522651    -2.4615123291     0.7525112934
 H     -0.0892680694    -0.7461475072     2.4763717335
 F     -0.9500502164    -1.0297514701     2.6160566919
 H      1.4681276918     1.9576571049    -0.1624195412
 F      1.5502064170     1.9968595969     0.7500579914
 H      1.5105745628     0.5966306927     1.6165446320
 F      1.4104493406    -0.2178827575     2.0257289172
 H     -2.1296692502    -1.6231312190    -0.6658845353
 F     -2.1065994844    -1.0983794701    -1.4175442906
 H     -0.6376041128    -0.8006526624    -2.1128229384
 F      0.2112708300    -0.6075393641    -2.4009333088
          14
Energy: -54.11731879958013 Kcal/mole
 H      0.8876649864     0.8718239706    -2.0749277772
 F      1.2287671250     1.6699889287    -1.7791727592
 H     -1.6483834704    -2.0008518914     1.4756614175
 F     -1.9735641640    -2.4614451875     0.7524737986
 H     -0.0897352889    -0.7451991886     2.4754255509
 F     -0.9500254315    -1.0298017762     2.6161068847
 H      1.4708393280     1.9520769606    -0.1624015084
 F      1.5500625709     1.9971556107     0.7500570348
 H      1.5107186835     0.5974439838     1.6182032351
 F      1.4104416953    -0.2179259008     2.0256409321
 H     -2.1312258931    -1.6218763900    -0.6650595621
 F     -2.1065169080    -1.0984460358    -1.4175880535
 H     -0.6383704953    -0.8044685053    -2.1177099672
 F      0.2113114848    -0.6073369425    -2.4006740632
          14
Energy: -54.11732612195395 Kcal/mole
 H      0.8938408788     0.8687645307    -2.0737067550
 F      1.2284395082     1.6701512249    -1.7792375317
 H     -1.6501332492    -2.0041855597     1.4785549786
 F     -1.9734713423    -2.4612683441     0.7523203018
 H     -0.0887524770    -0.7480913748     2.4756196946
 F     -0.9500775674    -1.0296483524     2.6160965858
 H      1.4667299518     1.9537000185    -0.1621135886
 F      1.5502805639     1.9970695112     0.7500417613
 H      1.5091550784     0.5904451317     1.6071308665
 F      1.4068896060    -0.2258779654     2.0121584881
 H     -2.1206034847    -1.6271724041    -0.6623351444
 F     -2.1019791388    -1.1018094681    -1.4136911979
 H     -0.6374056139    -0.8052959940    -2.1154020317
 F      0.2112603001    -0.6072930461    -2.4007964939
          14
Energy: -54.11867780841291 Kcal/mole
 H      0.8902003199     0.8712221996    -2.0762127956
 F      1.2286326315     1.6700208512    -1.7791045920
 H     -1.6508402012    -1.9964833448     1.4739633987
 F     -1.9734338402    -2.4616769288     0.7525638745
 H     -0.0927895575    -0.7415499283     2.4742396062
 F     -0.9540629562    -1.0221856759     2.6168604672
 H      1.4670839891     1.9521283597    -0.1620697916
 F      1.5502617830     1.9971528841     0.7500394380
 H      1.5100809686     0.5928605266     1.6122759239
 F      1.4068404897    -0.2260060965     2.0118855547
 H     -2.1227097378    -1.6272086112    -0.6624157844
 F     -2.1018674070    -1.1018075474    -1.4136869201
 H     -0.6372128614    -0.8036430772    -2.1136925796
 F      0.2112500750    -0.6073807295    -2.4008871764
          14
Energy: -54.11682104554296 Kcal/mole
 H      0.8937169099     0.8688383336    -2.0737667003
 F      1.2284460845     1.6701473098    -1.7792343517
 H     -1.6507729254    -1.9986577266     1.4753306435
 F     -1.9734374090    -2.4615615828     0.7524913454
 H     -0.0932295615    -0.7390773136     2.4764898197
 F     -0.9540396150    -1.0223168424     2.6167410986
 H      1.4657711449     1.9530023810    -0.1619917747
 F      1.5503314264     1.9971065193     0.7500352994
 H      1.5040428205     0.5909100042     1.6068113993
 F      1.4071607995    -0.2259026258     2.0121754351
 H     -2.1260999433    -1.6198965210    -0.6609466575
 F     -2.1072062951    -1.0905122637    -1.4094680922
 H     -0.6392629673    -0.7997825813    -2.1171682345
 F      0.2113588284    -0.6075855199    -2.4007028009
          14
Energy: -54.115146931599156 Kcal/mole
 H      0.8859694183     0.8709481374    -2.0705682719
 F      1.2288570710     1.6700353896    -1.7794040209
 H     -1.6517409022    -1.9951298126     1.4734912565
 F     -1.9733860600    -2.4617487305     0.7525889206
 H     -0.0940904735    -0.7367429055     2.4759445914
 F     -0.9539939456    -1.0224406773     2.6167700217
 H      1.4662760184     1.9520737379    -0.1619930323
 F      1.5503046440     1.9971557817     0.7500353661
 H      1.5087089424     0.5931559849     1.6125295796
 F      1.4069132725    -0.2260217699     2.0118720988
 H     -2.1328868664    -1.6171029330    -0.6591823116
 F     -2.1068462645    -1.0906604571    -1.4095616866
 H     -0.6361717104    -0.8070592945    -2.1129755852
 F      0.2111948444    -0.6071995071    -2.4009252113
          14
Energy: -54.11657236520375 Kcal/mole
 H      0.8931495083     0.8683358967    -2.0717466023
 F      1.2284761838     1.6701739629    -1.7793415132
 H     -1.6487798067    -2.0004792366     1.4756020704
 F     -1.9735431393    -2.4614649559     0.7524769468
 H     -0.0930646381    -0.7404616124     2.4747254292
 F     -0.9540483638    -1.0222434085     2.6168346954
 H      1.4683548160     1.9516337568    -0.1621601886
 F      1.5501943686     1.9971791216     0.7500442334
 H      1.5125818056     0.5921977276     1.6204811117
 F      1.4085418159    -0.2218994421     2.0295171478
 H     -2.1299228735    -1.6203875666    -0.6614010354
 F     -2.1070034975    -1.0904862148    -1.4094439885
 H     -0.6374043422    -0.8007599176    -2.1123068151
 F      0.2112602326    -0.6075336745    -2.4009606880
          14
Energy: -54.116560685457856 Kcal/mole
 H      0.8891657700     0.8690327912    -2.0690465556
 F      1.2286875119     1.6701369943    -1.7794847445
 H     -1.6508379889    -2.0000735445     1.4762642737
 F     -1.9734339575    -2.4614864770     0.7524418184
 H     -0.0921953195    -0.7447550043     2.4715867177
 F     -0.9540944791    -1.0220156540     2.6170011968
 H      1.4700605221     1.9537839470    -0.1624161890
 F      1.5501038848     1.9970650590     0.7500578136
 H      1.5092673945     0.5882968876     1.5995678408
 F      1.4073719453    -0.2278230055     2.0050979105
 H     -2.1289279162    -1.6180738697    -0.6597379773
 F     -2.1070562777    -1.0906089511    -1.4095322099
 H     -0.6387164175    -0.8043443252    -2.1186641325
 F      0.2113298352    -0.6073435300    -2.4006234470
          14
Energy: -54.11536869909105 Kcal/mole
 H      0.8882997722     0.8689412094    -2.0677734446
 F      1.2287334511     1.6701418525    -1.7795522801
 H     -1.6508976423    -1.9972333259     1.4744721077
 F     -1.9734307930    -2.4616371440     0.7525368887
 H     -0.0902186672    -0.7502605549     2.4729358094
 F     -0.9541993360    -1.0217235973     2.6169296306
 H      1.4726166050     1.9494044045    -0.1624178406
 F      1.5499682905     1.9972973836     0.7500579012
 H      1.5103934056     0.5920437182     1.6074925905
 F      1.4073122130    -0.2280217662     2.0046775209
 H     -2.1301767895    -1.6242410719    -0.6641544086
 F     -2.1069900279    -1.0902817953    -1.4092979284
 H     -0.6380909504    -0.8025366431    -2.1155405364
 F      0.2112966556    -0.6074394233    -2.4007891465
          14
Energy: -54.11729656638377 Kcal/mole
 H      0.8950479778     0.8686933886    -2.0748796694
 F      1.2283754744     1.6701549988    -1.7791753113
 H     -1.6466202625    -1.9986344844     1.4734469274
 F     -1.9736576981    -2.4615628158     0.7525912722
 H     -0.0920467299    -0.7430136228     2.4758650509
 F     -0.9541023615    -1.0221080303     2.6167742411
 H      1.4672956869     1.9515065286    -0.1620581523
 F      1.5502505529     1.9971858708     0.7500388206
 H      1.5111565040     0.5898154262     1.6031225649
 F      1.4072717324    -0.2279035605     2.0049093406
 H     -2.1273962695    -1.6208406601    -0.6616492677
 F     -2.1071375280    -1.0904621793    -1.4094308203
 H     -0.6374994729    -0.8023605465    -2.1136660347
 F      0.2112652791    -0.6074487648    -2.4008885845
          14
Energy: -54.11773144904657 Kcal/mole
 H      0.8915584002     0.8702371198    -2.0751041377
 F      1.2285605884     1.6700731074    -1.7791634037
 H     -1.6502377332    -1.9967837389     1.4738873624
 F     -1.9734657997    -2.4616609935     0.7525679081
 H     -0.0921635170    -0.7438791184     2.4734607597
 F     -0.9540961662    -1.0220621177     2.6169017832
 H      1.4677101155     1.9529022886    -0.1621645161
 F      1.5502285684     1.9971118290     0.7500444629
 H      1.5107379276     0.5908825773     1.6051935544
 F      1.4072939369    -0.2279601704     2.0047994794
 H     -2.1304363542    -1.6203041999    -0.6613579042
 F     -2.1069762586    -1.0904906373    -1.4094462765
 H     -0.6366672592    -0.8010808277    -2.1103626265
 F      0.2112211321    -0.6075166510    -2.4010638227
          14
Energy: -54.11674602372743 Kcal/mole
 H      0.8909070629     0.8698085962    -2.0731967071
 F      1.2285951404     1.6700958396    -1.7792645885
 H     -1.6509082203    -1.9993943656     1.4758621638
 F     -1.9734302319    -2.4615225058     0.7524631494
 H     -0.0953313030    -0.7443642097     2.4771328730
 F     -0.9588648225    -1.0209158745     2.6139467519
 H      1.4748004890     1.9543674496    -0.1628463944
 F      1.5498524405     1.9970341056     0.7500806350
 H      1.5109984718     0.5898586229     1.6031696570
 F      1.4072801157    -0.2279058520     2.0049068425
 H     -2.1274576142    -1.6173095069    -0.6591595381
 F     -2.1071342738    -1.0906494988    -1.4095628947
 H     -0.6407004608    -0.8025905636    -2.1119549942
 F      0.2083047285    -0.6081657461    -2.3987967257
          14
Energy: -54.11646859750823 Kcal/mole
 H      0.8939754190     0.8673002882    -2.0698442080
 F      1.2284323712     1.6702288996    -1.7794424308
 H     -1.6546865392    -1.9983342345     1.4768575270
 F     -1.9732298008    -2.4615787433     0.7524103477
 H     -0.0982111819    -0.7411722411     2.4659595650
 F     -0.9587120516    -1.0210852011     2.6145394700
 H      1.4679707158     1.9523417001    -0.1621607009
 F      1.5502147442     1.9971415669     0.7500442605
 H      1.5116884197     0.5906323630     1.6049282485
 F      1.4072435155    -0.2279468971     2.0048135533
 H     -2.1300771050    -1.6217496670    -0.6623726376
 F     -2.1069953159    -1.0904139586    -1.4093924472
 H     -0.6409279479    -0.8034909096    -2.1132432138
 F      0.2083167961    -0.6081179848    -2.3987283887
          14
Energy: -54.11640510128271 Kcal/mole
 H      0.8958924787     0.8684401348    -2.0751437038
 F      1.2283306756     1.6701684334    -1.7791613048
 H     -1.6514875887    -1.9969173490     1.4745320835
 F     -1.9733994977    -2.4616539058     0.7525337071
 H     -0.0957810694    -0.7449437742     2.4731846137
 F     -0.9588409634    -1.0208851300     2.6141561979
 H      1.4656256470     1.9458935311    -0.1616052388
 F      1.5503391447     1.9974836274     0.7500147946
 H      1.5122171593     0.5916785275     1.6072165880
 F      1.4072154671    -0.2280023937     2.0046921622
 H     -2.1295219098    -1.6184460820    -0.6600175480
 F     -2.1070247677    -1.0905892061    -1.4095173793
 H     -0.6400971290    -0.8024006631    -2.1100479230
 F      0.2082727231    -0.6081758199    -2.3988978915
          14
Energy: -54.117243003453325 Kcal/mole
 H      0.8924622898     0.8678774071    -2.0696924034
 F      1.2285126392     1.6701982848    -1.7794504837
 H     -1.6468789214    -2.0013003859     1.4744929889
 F     -1.9721334180    -2.4628880280     0.7519728431
 H     -0.0969882738    -0.7414447466     2.4726949876
 F     -0.9587769240    -1.0210707453     2.6141821714
 H      1.4692249894     1.9542924872    -0.1623664630
 F      1.5501482079     1.9970380821     0.7500551757
 H      1.5106626940     0.5901030753     1.6035810156
 F      1.4072979279    -0.2279188196     2.0048850209
 H     -2.1258415684    -1.6198858368    -0.6609326267
 F     -2.1072200013    -1.0905128305    -1.4094688365
 H     -0.6421249554    -0.8029988493    -2.1164897877
 F      0.2083802946    -0.6081440875    -2.3985561654
          14
Energy: -54.116715022515095 Kcal/mole
 H      0.8852669256     0.8723387497    -2.0735371309
 F      1.2288943366     1.6699616208    -1.7792465298
 H     -1.6507568264    -1.9967529183     1.4733064528
 F     -1.9719277041    -2.4631292607     0.7520357861
 H     -0.0953191415    -0.7468451830     2.4723079458
 F     -0.9588654676    -1.0207842646     2.6142027031
 H      1.4654728079     1.9513994387    -0.1618850568
 F      1.5503472524     1.9971915517     0.7500296383
 H      1.5125673642     0.5919872588     1.6079467681
 F      1.4071968896    -0.2280187712     2.0046534278
 H     -2.1218857002    -1.6230677495    -0.6581418099
 F     -2.1027487095    -1.0920555196    -1.4055030260
 H     -0.6416981400    -0.8035626196    -2.1155947136
 F      0.2083576530    -0.6081141808    -2.3986036470
          14
Energy: -54.11711471444393 Kcal/mole
 H      0.8904805715     0.8693684319    -2.0715024789
 F      1.2286177648     1.6701191893    -1.7793544634
 H     -1.6553879437    -1.9940802369     1.4774477450
 F     -1.9799567848    -2.4581935874     0.7562384374
 H     -0.0971185921    -0.7406765539     2.4734236689
 F     -0.9587700109    -1.0211114961     2.6141435166
 H      1.4707667108     1.9525621769    -0.1624190358
 F      1.5500664231     1.9971298711     0.7500579646
 H      1.5122783509     0.5907838022     1.6053931053
 F      1.4072122210    -0.2279549306     2.0047888937
 H     -2.1302008961    -1.6197621851    -0.6560655193
 F     -2.1023076076    -1.0922308722    -1.4056131684
 H     -0.6402791217    -0.8026242504    -2.1107337972
 F      0.2082823774    -0.6081639591    -2.3988615074
          14
Energy: -54.116672625251354 Kcal/mole
 H      0.8855423476     0.8704878206    -2.0687956208
 F      1.2288797261     1.6700598084    -1.7794980560
 H     -1.6571482029    -1.9924633620     1.4771952116
 F     -1.9798634071    -2.4582793588     0.7562518337
 H     -0.0969044087    -0.7421270863     2.4718616157
 F     -0.9587813729    -1.0210345488     2.6142263799
 H      1.4701298940     1.9531826931    -0.1623935436
 F      1.5501002048     1.9970969541     0.7500566123
 H      1.5133738073     0.5921464081     1.6084912272
 F      1.4071541096    -0.2280272137     2.0046245455
 H     -2.1201373460    -1.6211178875    -0.6567178934
 F     -2.1028414557    -1.0921589553    -1.4055785615
 H     -0.6365629242    -0.8025602538    -2.1004168285
 F      0.2125390051    -0.6066157454    -2.3859350649
          14
Energy: -54.11714805429703 Kcal/mole
 H      0.8855269010     0.8708061491    -2.0696555668
 F      1.2288805455     1.6700429218    -1.7794524378
 H     -1.6537358111    -1.9945259152     1.4769887406
 F     -1.9800444266    -2.4581699451     0.7562627865
 H     -0.0939315560    -0.7396643359     2.4710756567
 F     -0.9561975560    -1.0175145152     2.6131517741
 H      1.4722412175     1.9512033309    -0.1624784877
 F      1.5499882040     1.9972019547     0.7500611184
 H      1.5103899270     0.5920384353     1.6074807802
 F      1.4073123976    -0.2280214860     2.0046781474
 H     -2.1269513812    -1.6167042855    -0.6538100047
 F     -2.1024799868    -1.0923930867    -1.4057328183
 H     -0.6382013627    -0.8017256629    -2.1047575981
 F      0.2126259205    -0.6066600186    -2.3857047971
          14
Energy: -54.116489675809504 Kcal/mole
 H      0.8903838748     0.8673582435    -2.0658152267
 F      1.2286228943     1.6702258252    -1.7796561590
 H     -1.6589215725    -1.9925338335     1.4780317450
 F     -1.9797693339    -2.4582756205     0.7562074576
 H     -0.0923818789    -0.7453303045     2.4695367487
 F     -0.9562797628    -1.0172139486     2.6132334097
 H      1.4714832254     1.9547659269    -0.1625858273
 F      1.5500284137     1.9970129673     0.7500668125
 H      1.5083990329     0.5893804216     1.6015377811
 F      1.4074180099    -0.2278804845     2.0049934097
 H     -2.1267628585    -1.6215832014    -0.6572307947
 F     -2.1024899875    -1.0921342715    -1.4055513533
 H     -0.6365983990    -0.8030337482    -2.0994487617
 F      0.2116259384    -0.6037131240    -2.3852384785
          14
Energy: -54.11627071891408 Kcal/mole
 H      0.8878251859     0.8685847105    -2.0662168149
 F      1.2287586268     1.6701607639    -1.7796348557
 H     -1.6579333359    -1.9927464287     1.4777288383
 F     -1.9798217576    -2.4582643428     0.7562235261
 H     -0.0915647382    -0.7463430492     2.4725731698
 F     -0.9563231102    -1.0171602248     2.6130723345
 H      1.4703243637     1.9573684351    -0.1626018815
 F      1.5500898886     1.9968749102     0.7500676641
 H      1.5076615140     0.5891592016     1.6009063663
 F      1.4074571336    -0.2278687493     2.0050269048
 H     -2.1245870044    -1.6192297047    -0.6555044061
 F     -2.1026054116    -1.0922591190    -1.4056429342
 H     -0.6369189289    -0.8031643787    -2.1004934329
 F      0.2116429417    -0.6037061944    -2.3851830611
          14
Energy: -54.11747006851837 Kcal/mole
 H      0.8911457296     0.8684486183    -2.0697433209
 F      1.2285824797     1.6701679833    -1.7794477827
 H     -1.6552941555    -1.9925139249     1.4763949758
 F     -1.9799617600    -2.4582766766     0.7562942844
 H     -0.0935760848    -0.7421720726     2.4683795021
 F     -0.9562164129    -1.0173814855     2.6132947989
 H      1.4704599447     1.9501425788    -0.1622707515