          14
Energy: -54.11614834800574 Kcal/mole
 H      0.8663740402     0.9449025861    -2.0015179650
 F      1.1785353174     1.7526919090    -1.6999872920
 H     -1.8114990883    -1.9120549040     1.4200933569
 F     -2.1279600789    -2.3963835592     0.7086390751
 H     -0.2220743201    -0.7146648609     2.4309951319
 F     -1.1108204149    -0.9133577038     2.5384220054
 H      1.5931718478     1.8982335496    -0.1011658858
 F      1.7647779902     1.8688050243     0.7991531098
 H      1.5440002830     0.4583776736     1.6340680013
 F      1.3387642699    -0.3460301218     2.0235487808
 H     -2.1875397986    -1.6171490486    -0.7416144532
 F     -2.1201476111    -1.1192434660    -1.5087111380
 H     -0.6147517614    -0.7829489388    -2.1013562945
 F      0.2464243027    -0.5631254214    -2.3270605428
