          14
Energy: -54.01544591334536 Kcal/mole
 H     -3.7438512152     5.2293034123     4.4145624122
 F     -4.1221462193     5.2018156949     3.5796813936
 H      1.7635423378     4.4866212575     4.7810178456
 F      1.5738760482     4.7433529981     5.6406715620
 H      1.1490205128     4.4596694060     2.6670457655
 F      1.8475228962     4.1325550841     3.1630091116
 H     -3.2220663366     4.5344857922     2.3692048662
 F     -2.6155153536     4.1885490887     1.7748037372
 H     -1.0690687864     4.7739342358     1.8566768899
 F     -0.2323692432     5.1202544571     2.0011939432
 H      0.2750104077     5.7491485847     5.7609031072
 F     -0.4853247496     6.2605254571     5.7252219790
 H     -2.0160504266     5.6294156238     5.8432629143
 F     -2.8467989677     5.2419740121     5.8180665069
