          14
Energy: -0.38947203222515014 Kcal/mole
 H      1.5816935475    -3.6399101366    -3.4954620308
 F      1.7611333898    -2.7406380181    -3.4954620308
 H      0.2768099156     0.9938587389     3.7911311034
 F     -0.6361704398     0.9938587389     3.8768974765
 H      0.0834766173     1.8071563903    -1.0380631987
 F     -0.8335214997     1.8090147111    -1.0380631987
 H     -0.6673490721    -2.7608102487     2.6233066369
 F      0.2496509279    -2.7608102487     2.6233066369
 H      4.6413487894     1.8297990791     0.3661393771
 F      5.4995763222     2.1528075957     0.3661393771
 H     -3.4651740950     3.8835159504    -4.9066207430
 F     -2.9112561105     4.6143126844    -4.9066207430
 H      4.8297686645     4.3054233686    -4.0674244170
 F      5.5853997520     4.3054233686    -4.5869536843
