          14
Energy: -54.077309850102125 Kcal/mole
 H      0.5716309728     1.0511454937    -1.8922859745
 F      0.8254403698     1.8642908456    -1.5527798232
 H     -1.6894633141    -1.9336243045     1.3537705920
 F     -2.0173146499    -2.4482708344     0.6692697148
 H     -0.0850343021    -0.6738511019     2.3719919017
 F     -0.9808777768    -0.8645688718     2.4164913531
 H      1.5446843232     1.9463221478    -0.0565398356
 F      1.8729336458     1.8747065872     0.7966967046
 H      1.6757028557     0.5032696987     1.6966988438
 F      1.4899643128    -0.2765603431     2.1419575322
 H     -2.2257647486    -1.7714058823    -0.8300565858
 F     -2.2248772960    -1.3176584520    -1.6269263882
 H     -0.7264689041    -0.8102421223    -2.1153083747
 F      0.1244271633    -0.5061419624    -2.2714748731
          14
Energy: -54.05268928461879 Kcal/mole
 H      0.6570827794     0.9926809387    -1.8888889368
 F      0.9196191779     1.8171366537    -1.5851844529
 H     -1.6765473818    -1.9092646923     1.3495034502
 F     -2.0006751673    -2.4446434243     0.6792797622
 H     -0.1141530090    -0.6213666490     2.2861814150
 F     -1.0139197604    -0.7740293804     2.3756402520
 H      1.5909446291     1.9629553273    -0.0837546164
 F      1.8848951950     1.9041452012     0.7828614658
 H      1.6746670022     0.4678977082     1.5665767653
 F      1.4612646355    -0.3387124670     1.9470086975
 H     -2.2047902743    -1.7330089317    -0.7972880053
 F     -2.2011434285    -1.2669825970    -1.5870317333
 H     -0.7163420173    -0.8127737878    -2.0890538279
 F      0.1383614875    -0.5267447201    -2.2580458137
          14
Energy: -54.06464127329325 Kcal/mole
 H      0.7324746450     0.9342256710    -1.8705747732
 F      1.0028793413     1.7567951546    -1.5686646132
 H     -1.6984732303    -1.9881496829     1.4175862008
 F     -2.0332801006    -2.5243038963     0.7532579544
 H     -0.1249595713    -0.6864899516     2.3800299190
 F     -1.0196057862    -0.8817258149     2.4288162676
 H      1.5695112260     1.9386498855    -0.0334584161
 F      1.8386814456     1.9198974051     0.8429460209
 H      1.6575516849     0.5034433096     1.6575144553
 F      1.4644318778    -0.3121147387     2.0296149927
 H     -2.1723804967    -1.8162420196    -0.7264398119
 F     -2.1598954189    -1.3351753089    -1.5070216095
 H     -0.6708632100    -0.8557571502    -2.0541371021
 F      0.1857043132    -0.5765603119    -2.2251055315
          14
Energy: -54.0318818855841 Kcal/mole
 H      0.8010920737     0.9106375469    -1.8315918233
 F      1.0855480861     1.7425959120    -1.5711709030
 H     -1.7463340976    -2.0264542049     1.4577506047
 F     -2.0610009627    -2.5360030709     0.7633201062
 H     -0.1666211106    -0.7597166491     2.3784493566
 F     -1.0500305677    -0.9624876308     2.5175919451
 H      1.5723957521     1.9285823632    -0.0084374322
 F      1.7950667597     1.9116219435     0.8809550382
 H      1.5865959966     0.4746760411     1.6389599932
 F      1.3998299754    -0.3591746212     1.9716768793
 H     -2.1942334212    -1.8137775065    -0.7337782040
 F     -2.1570893766    -1.3499319859    -1.5239406259
 H     -0.6491404362    -0.8646811353    -2.0358402431
 F      0.2131522982    -0.5890469512    -2.1820115015
          14
Energy: -54.064278033274135 Kcal/mole
 H      0.7973030142     0.8890304221    -1.9233531883
 F      1.1089620624     1.6856034969    -1.5928551187
 H     -1.6274180506    -2.0282101341     1.4475016106
 F     -1.8627824841    -2.5742724463     0.7494267331
 H     -0.1889646208    -0.7280372946     2.4770843592
 F     -1.0875540622    -0.9054127269     2.5214010807
 H      1.7023188406     1.7828582895    -0.0423332475
 F      1.9779137829     1.7125710690     0.8294443241
 H      1.6546298249     0.3572033807     1.7063431505
 F      1.4061498856    -0.4144773222     2.1348937455
 H     -2.0621370435    -1.8614266164    -0.7187041305
 F     -2.0773014345    -1.3738755835    -1.4952046337
 H     -0.6200019710    -0.8847037343    -2.1064340861
 F      0.2072291959    -0.5858566258    -2.3657948431
          14
Energy: -54.049911694261695 Kcal/mole
 H      0.7212061334     0.9723036340    -2.0169096802
 F      0.9990354960     1.7631682866    -1.6451127645
 H     -1.5362305190    -2.0418845984     1.4196441179
 F     -1.7700555557    -2.5888926128     0.7217923540
 H     -0.1173884003    -0.7376729960     2.5054630159
 F     -1.0108600119    -0.9407304889     2.5424107340
 H      1.5297412106     1.8446133449    -0.0801308057
 F      1.7793948511     1.7976607337     0.8009807151
 H      1.6320946536     0.4457233837     1.7646544443
 F      1.4615381639    -0.3248361842     2.2315992334
 H     -2.0450536479    -1.8073956385    -0.7123421199
 F     -2.0970874619    -1.3285653175    -1.4926644929
 H     -0.6714714009    -0.8225988777    -2.1637042999
 F      0.1481272972    -0.5202429406    -2.4425014691
          14
Energy: -53.98869716031675 Kcal/mole
 H      0.7313535538     0.9692268488    -1.9768555281
 F      1.0466914416     1.7605456088    -1.6373475952
 H     -1.5504126366    -2.0537871305     1.3758514762
 F     -1.8533254574    -2.5849106589     0.6924477737
 H     -0.0851012793    -0.7253978338     2.5010126660
 F     -0.9703534797    -0.9645949743     2.5025191721
 H      1.6356644416     1.8064183263    -0.0885335232
 F      1.8933118198     1.7866467487     0.7913050490
 H      1.6878299424     0.4696796715     1.7965321157
 F      1.4897946549    -0.2745108148     2.2943790247
 H     -2.0974467934    -1.7866573669    -0.7405252579
 F     -2.1414599116    -1.2223952899    -1.4620238053
 H     -0.6978969651    -0.7852025447    -2.1484189346
 F      0.1372307469    -0.5017583864    -2.3996361986
          14
Energy: -54.053160724350136 Kcal/mole
 H      0.7357440440     0.9855219088    -2.0135483729
 F      1.0232616223     1.7880965736    -1.6757665652
 H     -1.5120100344    -2.0557054809     1.3695372558
 F     -1.7584578122    -2.5875930428     0.6643790365
 H     -0.0780358021    -0.7215909057     2.4240000441
 F     -0.9609775563    -0.9667410626     2.4587024845
 H      1.5936223249     1.8715334008    -0.1247323604
 F      1.8445525926     1.8193455769     0.7557217451
 H      1.6763075915     0.4729977722     1.7096697037
 F      1.4956448459    -0.2955687054     2.1760981996
 H     -2.0501160278    -1.7357729323    -0.7231604000
 F     -2.1011210920    -1.1818849857    -1.4521978654
 H     -0.6529335320    -0.7708451945    -2.1635044696
 F      0.1924294597    -0.5243092731    -2.4193764136
          14
Energy: -54.00928463642491 Kcal/mole
 H      0.7697613188     0.9779317314    -2.0276262075
 F      1.0811833635     1.7813164355    -1.7138136402
 H     -1.5537236786    -2.0173416670     1.3701958647
 F     -1.8101202928    -2.5501424634     0.6692871064
 H     -0.0849182822    -0.7426821535     2.4754174764
 F     -0.9770945806    -0.9520734921     2.5080628424
 H      1.6051510172     1.8425586457    -0.1436685578
 F      1.8560252017     1.7885083169     0.7366891567
 H      1.6929478687     0.4106796971     1.6839249387
 F      1.5110366421    -0.3574567891     2.1505764621
 H     -2.0660306609    -1.6852195094    -0.7037686429
 F     -2.0875151359    -1.1055661374    -1.4140005668
 H     -0.6576157955    -0.7434268277    -2.1472033858
 F      0.1815790470    -0.5159248482    -2.4385517438
          14
Energy: -54.02479564793644 Kcal/mole
 H      0.7722718865     0.9648833443    -1.9925303823
 F      1.1231370579     1.7449471862    -1.6619505370
 H     -1.5663762831    -1.9996651525     1.3750408378
 F     -1.8447150102    -2.5242147231     0.6762817226
 H     -0.0613485843    -0.7658524763     2.3785084183
 F     -0.9617864391    -0.9118962000     2.4721668431
 H      1.6302313432     1.8482423336    -0.0766412669
 F      1.8658583154     1.7942279372     0.8079215488
 H      1.7072084338     0.3496819410     1.6025485505
 F      1.5064229639    -0.4671081526     1.9678267158
 H     -2.1212553254    -1.6720764758    -0.7154916857
 F     -2.1313990811    -1.1060165321    -1.4368530684
 H     -0.7131351139    -0.7217533836    -2.1462570987
 F      0.1266996352    -0.4886869810    -2.4312950721
          14
Energy: -54.073400247030136 Kcal/mole
 H      0.7705260377     0.9933247237    -2.0080444543
 F      1.1145191876     1.7749407226    -1.6739274940
 H     -1.5968925688    -2.0187325998     1.3724374198
 F     -1.9046042899    -2.5285417223     0.6750873245
 H     -0.0163896003    -0.8055157019     2.3790900960
 F     -0.9055142592    -0.9989057269     2.4928733957
 H      1.6763522808     1.8529784462    -0.1176918853
 F      1.9522949743     1.7738314236     0.7532159047
 H      1.7414208767     0.3514381689     1.5752639377
 F      1.5345836268    -0.4530832470     1.9636614704
 H     -2.1305300327    -1.6842503936    -0.7332138490
 F     -2.1417939386    -1.1451428538    -1.4749180925
 H     -0.7140536678    -0.7203148271    -2.1688341098
 F      0.1266322750    -0.4725710490    -2.4385731799
          14
Energy: -54.03176438529914 Kcal/mole
 H      0.8647411851     0.9124846572    -1.9810057734
 F      1.1779980105     1.7219441002    -1.6851433534
 H     -1.6454676029    -2.0216521738     1.3605461254
 F     -1.9734736495    -2.5189880857     0.6634392296
 H     -0.0671251183    -0.7866937081     2.3568559218
 F     -0.9579877690    -0.9794600374     2.4573242247
 H      1.6873509811     1.8671934345    -0.1081199165
 F      1.9080516937     1.8182244003     0.7805770111
 H      1.7097286321     0.4196067589     1.6095160966
 F      1.5137537303    -0.3906307322     1.9916130031
 H     -2.1288755413    -1.7360835135    -0.7796393249
 F     -2.1406095039    -1.2008013984    -1.5241017963
 H     -0.6752986051    -0.7815249843    -2.1497091227
 F      0.1798385591    -0.5513714715    -2.3877401942
          14
Energy: -54.05814854636424 Kcal/mole
 H      0.7560808915     0.9300211406    -2.0068769352
 F      1.0940235764     1.7297821515    -1.7118073379
 H     -1.6425546702    -2.0077109427     1.3619149290
 F     -1.9600190970    -2.4921024299     0.6509506368
 H     -0.0540480468    -0.8049551733     2.3408157326
 F     -0.9415766448    -0.9978326427     2.4672288237
 H      1.5989188499     1.8586140889    -0.1487882950
 F      1.8301605452     1.8262335178     0.7379855076
 H      1.6605003937     0.3816068712     1.4897768152
 F      1.4716720072    -0.4428054112     1.8441455908
 H     -2.2083031879    -1.7397498325    -0.8053723786
 F     -2.1941210723    -1.2444663869    -1.5769824979
 H     -0.7032945165    -0.8262105391    -2.1523279726
 F      0.1514477946    -0.5734260905    -2.3677452522
          14
Energy: -54.05671069891967 Kcal/mole
 H      0.6933578552     0.9134547429    -2.0153526225
 F      0.9990018926     1.7222592628    -1.7098923616
 H     -1.6247069222    -2.0758775498     1.3695117080
 F     -1.9606768153    -2.5241498859     0.6435191849
 H     -0.0185616155    -0.9072705364     2.3529061579
 F     -0.8899364330    -1.1359718852     2.5240511855
 H      1.5492575934     1.8759113932    -0.1529971588
 F      1.8028632225     1.8461563213     0.7277342534
 H      1.6446930917     0.3819100353     1.4949846162
 F      1.4853036379    -0.4594011132     1.8231302448
 H     -2.1555392920    -1.7642932224    -0.8092906543
 F     -2.1663669984    -1.2603813658    -1.5753484860
 H     -0.6974446471    -0.8748690667    -2.1513485630
 F      0.1574743360    -0.6214443782    -2.3653075769
          14
Energy: -54.047314993006424 Kcal/mole
 H      0.7347433924     0.9499312447    -2.1035259695
 F      1.0564313164     1.7340065847    -1.7533378189
 H     -1.5721151901    -2.0799337622     1.3415715657
 F     -1.8921096605    -2.5435231202     0.6179850497
 H     -0.0224136891    -0.9148143979     2.3907491034
 F     -0.8965324865    -1.1505991568     2.5363886427
 H      1.4287222613     1.8834602957    -0.1367910907
 F      1.5680766140     1.8679731714     0.7694260541
 H      1.5729275774     0.4287147068     1.5496967034
 F      1.4796513044    -0.4222938753     1.8782890497
 H     -2.1326293847    -1.7621244223    -0.8247426245
 F     -2.1498827292    -1.2614625885    -1.5928110136
 H     -0.7036170714    -0.8208170679    -2.2348119213
 F      0.1238740980    -0.5406359935    -2.5134621142
          14
Energy: -54.051565373614594 Kcal/mole
 H      0.7087767642     0.9915661948    -2.1173457424
 F      1.0071149665     1.7846913859    -1.7668664300
 H     -1.6381707766    -2.0530696141     1.3752439613
 F     -1.9579804901    -2.4846464289     0.6320399515
 H     -0.0850199557    -0.8767045920     2.3856632448
 F     -0.9508559166    -1.1272143561     2.5543699336
 H      1.3841487143     1.9310062668    -0.1492732405
 F      1.5579971534     1.8885974661     0.7500972137
 H      1.5438657992     0.4364300448     1.5015696559
 F      1.4212484594    -0.3961739263     1.8657462823
 H     -2.1594379747    -1.6492303299    -0.7541621217
 F     -2.1642900674    -1.1276369597    -1.5083542812
 H     -0.7358229439    -0.7165989940    -2.2226440324
 F      0.0988039786    -0.4864018272    -2.5247965844
          14
Energy: -54.05460554309144 Kcal/mole
 H      0.7723189655     0.9743830965    -2.0806466457
 F      1.1019013030     1.7690243909    -1.7631412190
 H     -1.5324631757    -2.0915872028     1.3361824518
 F     -1.8064802206    -2.5444778700     0.5873876184
 H     -0.0574163981    -0.8631345187     2.4198448445
 F     -0.9297118327    -1.1211926047     2.5355846351
 H      1.4326552128     1.8994878722    -0.1580421984
 F      1.5517896263     1.8783766261     0.7509409185
 H      1.5397655468     0.4728278098     1.5971676786
 F      1.4500964288    -0.3520826523     1.9875151889
 H     -2.0894635750    -1.6861806661    -0.8037977639
 F     -2.1605160020    -1.1419604766    -1.5384166705
 H     -0.7138140398    -0.7528124541    -2.2252326509
 F      0.1348392316    -0.4989752159    -2.4623893109
          14
Energy: -54.00659425539615 Kcal/mole
 H      0.8107720026     0.9503325816    -2.0922366919
 F      1.1603721074     1.7373104512    -1.7770627725
 H     -1.5514556780    -2.0538850322     1.3435919898
 F     -1.8279129086    -2.5004902162     0.5919243709
 H     -0.0569371561    -0.8707081912     2.4453646122
 F     -0.9283167409    -1.1424498295     2.5333595052
 H      1.5662952645     1.8491061592    -0.1838514718
 F      1.7214020853     1.8559627757     0.7199094816
 H      1.5888017184     0.4743412811     1.6254344407
 F      1.4656754707    -0.3416973728     2.0251966733
 H     -2.1158555750    -1.6681240102    -0.7947207464
 F     -2.1638298137    -1.1386290203    -1.5418636564
 H     -0.7208746813    -0.7610942612    -2.1916332494
 F      0.1306570855    -0.5317083787    -2.4429592669
          14
Energy: -54.049137629627026 Kcal/mole
 H      0.8125292171     0.9360448097    -2.0587550515
 F      1.1645126946     1.7240641941    -1.7488807522
 H     -1.5359299653    -2.0415590011     1.3259286208
 F     -1.8353716119    -2.5011270782     0.5910674891
 H     -0.0257060820    -0.8388109131     2.3731084799
 F     -0.8862791547    -1.1187455312     2.5212286882
 H      1.6665723865     1.8690107200    -0.1796005109
 F      1.8868283032     1.8573940068     0.7104789143
 H      1.6893305372     0.4584645286     1.5342950525
 F      1.5020066606    -0.3557826722     1.9121842707
 H     -2.1370922493    -1.7073041546    -0.8302806356
 F     -2.1639851348    -1.1804552208    -1.5803446153
 H     -0.6816499226    -0.7815458752    -2.2033766833
 F      0.1749789494    -0.5483232364    -2.4329048438
          14
Energy: -54.058769810637315 Kcal/mole
 H      0.8099763527     0.9715647155    -2.0748561651
 F      1.2008311121     1.7384319165    -1.7585710832
 H     -1.5772004729    -1.9930627495     1.3147459423
 F     -1.8767380825    -2.4897184710     0.6044647904
 H     -0.0353012860    -0.7756759208     2.3760277371
 F     -0.9213468952    -0.9964527235     2.4601097324
 H      1.6875963202     1.8818300861    -0.1698683976
 F      1.8705300015     1.8641675744     0.7285258944
 H      1.6795310209     0.4618853358     1.5735889235
 F      1.5060719857    -0.3396669085     1.9838509894
 H     -2.1402701147    -1.7109026546    -0.8351844366
 F     -2.1910714334    -1.1927143558    -1.5900282039
 H     -0.7194127857    -0.7438465775    -2.1935273684
 F      0.1276462566    -0.4947360969    -2.4411640929
          14
Energy: -54.02807830500521 Kcal/mole
 H      0.8356267222     0.9446447556    -2.0935323245
 F      1.1706291667     1.7453241028    -1.7976016820
 H     -1.6377389787    -2.0026251680     1.3301600699
 F     -1.9696055994    -2.4736359065     0.6167860934
 H     -0.0231808912    -0.8080198561     2.3874472086
 F     -0.9087453531    -1.0357721155     2.4566822577
 H      1.6196758505     1.8952512686    -0.2078037201
 F      1.8439567048     1.8465941873     0.6800135960
 H      1.6620209174     0.4455172451     1.5715323533
 F      1.5091682646    -0.3652012082     1.9718580408
 H     -2.1800302540    -1.6180226106    -0.7746937947
 F     -2.1857041716    -1.0751306425    -1.5136965807
 H     -0.7194150169    -0.7368191467    -2.1452853723
 F      0.1378652391    -0.5286991380    -2.3955764523
          14
Energy: -54.062389669765 Kcal/mole
 H      0.7322451071     0.9549365924    -2.0231360273
 F      1.0387484407     1.7479833825    -1.6795934605
 H     -1.7414931825    -1.9062186505     1.3343723415
 F     -2.1039656602    -2.4049333405     0.6555598778
 H     -0.0489205528    -0.7227351994     2.3081567146
 F     -0.9422431672    -0.9091286087     2.3982744349
 H      1.5862859993     1.8792432057    -0.1121800342
 F      1.8524563992     1.8281574036     0.7638522478
 H      1.7091938480     0.4129467581     1.5846257771
 F      1.5292250310    -0.4009678011     1.9667819170
 H     -2.2474375246    -1.6309054821    -0.7771512324
 F     -2.2124880081    -1.1235826727    -1.5402312402
 H     -0.7291198597    -0.7759901239    -2.1980347785
 F      0.1173823448    -0.5303275842    -2.4509634926
          14
Energy: -54.05815837275233 Kcal/mole
 H      0.7660913771     0.9515097717    -2.0264900813
 F      1.0849879247     1.7508590773    -1.7098914718
 H     -1.6523568491    -1.9517675398     1.3544325856
 F     -2.0065221523    -2.4237793582     0.6525346007
 H      0.0055792798    -0.7802747243     2.3150797783
 F     -0.8737050734    -0.9907190368     2.4682503290
 H      1.5737314494     1.9172410940    -0.1284202185
 F      1.7813884887     1.8994201557     0.7645803236
 H      1.7048503315     0.4357204987     1.5314427804
 F      1.5288203507    -0.3931585516     1.8819594929
 H     -2.2125365942    -1.6156201226    -0.7845529641
 F     -2.2034340209    -1.1331416436    -1.5643097598
 H     -0.7018258319    -0.7801018288    -2.1703054695
 F      0.1532695919    -0.5458157472    -2.4044226372
          14
Energy: -54.05062395960569 Kcal/mole
 H      0.7550136206     0.9644721172    -2.0026499395
 F      1.0409847753     1.7765892880    -1.6870945568
 H     -1.6284908614    -2.0159714815     1.3368161037
 F     -1.9987437611    -2.4548469923     0.6218405263
 H      0.0087353199    -0.8623751309     2.3860109374
 F     -0.8622111434    -1.1253183153     2.5009115020
 H      1.5323219701     1.9278112865    -0.1008468993
 F      1.7551810905     1.8718553765     0.7868984181
 H      1.6686858691     0.4333275595     1.5710207761
 F      1.5595494186    -0.3907377219     1.9581830770
 H     -2.1994620578    -1.6302002814    -0.8004523600
 F     -2.1957078719    -1.1301409466    -1.5690976408
 H     -0.6957484302    -0.7740591363    -2.1660816298
 F      0.1703529698    -0.5407967038    -2.3567279058
          14
Energy: -54.04546859046438 Kcal/mole
 H      0.6474070477     0.9649126815    -1.9732046762
 F      0.8964806598     1.7811963534    -1.6377463289
 H     -1.6478052491    -1.9768007163     1.3626654052
 F     -2.0394526479    -2.4038733945     0.6519543229
 H      0.0029775260    -0.8293423625     2.3607472944
 F     -0.8798701479    -1.0409497445     2.4899421108
 H      1.4442724314     1.8938578499    -0.0860899753
 F      1.7214254214     1.8590033164     0.7873288141
 H      1.6687938522     0.4301082012     1.5829047198
 F      1.5365278898    -0.3948348458     1.9608778463
 H     -2.2225671782    -1.6470036971    -0.8161476614
 F     -2.1898331610    -1.2091860779    -1.6212148738
 H     -0.6749852215    -0.8326732152    -2.1596900376
 F      0.1870125353    -0.5778995325    -2.3411817399
          14
Energy: -54.068690787734894 Kcal/mole
 H      0.7093961509     0.9834760594    -1.9987409005
 F      0.9481292540     1.8090500843    -1.6788611811
 H     -1.6773946759    -1.9663815425     1.3552412810
 F     -2.0738475639    -2.4073676384     0.6557805096
 H     -0.0107002489    -0.8324752658     2.3569660841
 F     -0.8870613245    -1.0604842003     2.5015073961
 H      1.5011756260     1.9244213834    -0.1232828003
 F      1.7632538860     1.8776989078     0.7542256019
 H      1.6725966424     0.4198324747     1.5368859041
 F      1.5214867693    -0.4007849778     1.9172039329
 H     -2.2136942252    -1.6117004987    -0.7867970304
 F     -2.1691121439    -1.1218258196    -1.5606989859
 H     -0.6384889023    -0.7797471939    -2.1434227464
 F      0.2249503028    -0.5519189532    -2.3518838503
          14
Energy: -54.04988567389867 Kcal/mole
 H      0.7695421053     0.9721073491    -1.9994076261
 F      1.0216149728     1.7968131510    -1.6876246731
 H     -1.6471052972    -1.9978889041     1.3341773019
 F     -2.0029638213    -2.4835132699     0.6424962437
 H     -0.0089499433    -0.8025018711     2.3635131203
 F     -0.9040182303    -0.9890978735     2.4336821549
 H      1.5369244454     1.9251894652    -0.1193893855
 F      1.7609794287     1.8729363049     0.7682805823
 H      1.6933576337     0.4205469075     1.5588530928
 F      1.5493716790    -0.4067893650     1.9271895384
 H     -2.1367333554    -1.7197980928    -0.8026849942
 F     -2.0955764534    -1.2408930080    -1.5836107456
 H     -0.6070425270    -0.8270871614    -2.1004743194
 F      0.2472073483    -0.5722330491    -2.3154057784
          14
Energy: -54.04707043646694 Kcal/mole
 H      0.7319314404     0.9778381661    -1.9679664880
 F      0.9723326030     1.8075025343    -1.6601462204
 H     -1.7035367680    -1.9470408129     1.3718506805
 F     -2.0144605564    -2.4604410216     0.6785717875
 H     -0.1041945293    -0.7157108503     2.3542963883
 F     -1.0017303563    -0.8838906694     2.4381652596
 H      1.5447334303     1.9450700220    -0.1162606100
 F      1.7646549979     1.8866234175     0.7720566185
 H      1.6252777980     0.4498986719     1.5648775549
 F      1.4655007854    -0.3764753716     1.9288366824
 H     -2.1262825032    -1.6951381459    -0.7802572889
 F     -2.0896916253    -1.2184043115    -1.5627372943
 H     -0.5887660788    -0.8438504312    -2.1323041073
 F      0.2590201336    -0.5597474061    -2.3358551063
          14
Energy: -54.07778020512369 Kcal/mole
 H      0.7000298678     0.9943710232    -1.9812107558
 F      0.9392466946     1.8076880374    -1.6316685636
 H     -1.7508996349    -1.8989799593     1.3483943741
 F     -2.0782737111    -2.4323601132     0.6781549949
 H     -0.1285427630    -0.6735881737     2.3017388095
 F     -1.0295744818    -0.8206325733     2.3878131160
 H      1.5662590737     1.9365986300    -0.0944049265
 F      1.8539750768     1.8879935204     0.7749316280
 H      1.6585469033     0.4376422345     1.5510302403
 F      1.4443178250    -0.3823724528     1.9011313894
 H     -2.1520433911    -1.7161096842    -0.8102782656
 F     -2.0837444122    -1.2576729831    -1.6015178251
 H     -0.5887970873    -0.8466183806    -2.1843052677
 F      0.2490002318    -0.5393066358    -2.3953601033
          14
Energy: -54.086114377571064 Kcal/mole
 H      0.7018709797     0.9701176745    -1.9416994579
 F      0.9354426629     1.7946267245    -1.6153283574
 H     -1.7558862337    -1.8833454709     1.3703670262
 F     -2.0722930307    -2.3937261595     0.6773393994
 H     -0.1318940823    -0.6796788037     2.3267448316
 F     -1.0257306381    -0.8475204340     2.4441092153
 H      1.6023429436     1.9321443897    -0.0956192549
 F      1.9134577424     1.8739649064     0.7650268568
 H      1.6700801985     0.4521915730     1.5836862886
 F      1.4325626486    -0.3669718717     1.9205032484
 H     -2.1647251766    -1.7167683404    -0.8340148539
 F     -2.1055940928    -1.2811200932    -1.6387527737
 H     -0.5965006760    -0.8521468385    -2.1554949626
 F      0.2598232573    -0.5742735233    -2.3298071593
          14
Energy: -54.07781860561104 Kcal/mole
 H      0.6988523501     0.9846192449    -1.9233346565
 F      0.9289742575     1.8187759334    -1.6198292582
 H     -1.8003067499    -1.8229716117     1.3414161222
 F     -2.1553690507    -2.3496368907     0.6800210462
 H     -0.1518473406    -0.6437403768     2.2913995868
 F     -1.0546002960    -0.7807456783     2.3759906552
 H      1.5345101673     1.9501391262    -0.0777842404
 F      1.8275927217     1.9135561325     0.7903478353
 H      1.6398544054     0.4644515705     1.5444566781
 F      1.4358519867    -0.3533559218     1.9056531878
 H     -2.1900066378    -1.7420334163    -0.8512679556
 F     -2.1163529373    -1.3422967137    -1.6732622992
 H     -0.5968847383    -0.8851173874    -2.1329326443
 F      0.2609572327    -0.5842983708    -2.2533654971
          14
Energy: -54.064535630229045 Kcal/mole
 H      0.6945116279     0.9504406124    -1.9053485090
 F      0.9371825812     1.7853583268    -1.6139514970
 H     -1.8128072391    -1.8199009845     1.3519189014
 F     -2.1436968007    -2.3503438546     0.6810750600
 H     -0.1552951986    -0.6537266533     2.3096788796
 F     -1.0574172845    -0.7803834805     2.4146683563
 H      1.5341800515     1.9396587261    -0.0780477101
 F      1.8276102336     1.9141120935     0.7903618118
 H      1.6261270128     0.4517843332     1.5392422058
 F      1.4220028558    -0.3672312098     1.8976217097
 H     -2.2126078723    -1.7389087482    -0.8505560526
 F     -2.1362864845    -1.3341404837    -1.6698403121
 H     -0.6090447421    -0.8912984097    -2.1141234890
 F      0.2544082008    -0.6067049396    -2.2338923171
          14
Energy: -54.091581249119585 Kcal/mole
 H      0.6915748379     0.9697816248    -1.9432160196
 F      0.9466956754     1.7939410762    -1.6324692468
 H     -1.7951805482    -1.8875921373     1.3680586209
 F     -2.1254564606    -2.4104472666     0.6909845219
 H     -0.1650378804    -0.6597234021     2.3098261877
 F     -1.0640338877    -0.8117187316     2.4077680001
 H      1.5428250604     1.9479627007    -0.0840271860
 F      1.8185894511     1.8991773922     0.7891640843
 H      1.6219133594     0.4608858444     1.5504069426
 F      1.4121727421    -0.3590520504     1.9033938009
 H     -2.1974757467    -1.7532242837    -0.8195427112
 F     -2.1447569738    -1.3297241144    -1.6311813855
 H     -0.6537275148    -0.8529706615    -2.1196527798
 F      0.1996470153    -0.5687573677    -2.2981568830
          14
Energy: -54.09224432114509 Kcal/mole
 H      0.6757211171     0.9730715758    -1.9348803178
 F      0.9272766725     1.7968838171    -1.6203295370
 H     -1.8211338182    -1.8843848927     1.3866667076
 F     -2.1482480636    -2.3974901312     0.7006577539
 H     -0.1765984506    -0.6768169085     2.3557184940
 F     -1.0748393794    -0.8347050848     2.4512358096
 H      1.5326133877     1.9527098847    -0.0751337586
 F      1.8140434354     1.9144932260     0.7967754197
 H      1.6038689619     0.4843710228     1.6032664453
 F      1.4034339789    -0.3336338810     1.9660098737
 H     -2.2139173185    -1.6963977465    -0.7883931376
 F     -2.1594468345    -1.2486691978    -1.5868047564
 H     -0.6669309834    -0.8314505928    -2.1342573668
 F      0.1912299014    -0.5640801009    -2.3158115350
          14
Energy: -54.08923762588495 Kcal/mole
 H      0.6922067885     0.9698083518    -1.9390165853
 F      0.9264021458     1.7970569236    -1.6201101176
 H     -1.7349679301    -1.9427481513     1.4031356304
 F     -2.0534850461    -2.4508228205     0.7093806467
 H     -0.1553278545    -0.6986595721     2.3742793011
 F     -1.0436506493    -0.8935601221     2.4916904921
 H      1.5355374249     1.9379479076    -0.0785658353
 F      1.7997336191     1.8973993902     0.7986144134
 H      1.5994798384     0.4674954474     1.5873826039
 F      1.4114967157    -0.3496776316     1.9585692208
 H     -2.1903735476    -1.7544293905    -0.8028397409
 F     -2.1521319033    -1.3038209313    -1.6005731507
 H     -0.6492948613    -0.8574739339    -2.1107852707
 F      0.2028734308    -0.5796239031    -2.3044281438
          14
Energy: -54.075047684507 Kcal/mole
 H      0.6983056095     0.9719340700    -1.9467253370
 F      0.9525634386     1.7938205888    -1.6293225857
 H     -1.7364244485    -1.9308948725     1.4222747366
 F     -2.0764315150    -2.4268397546     0.7299432634
 H     -0.1424465461    -0.7146114054     2.3863548340
 F     -1.0332144728    -0.9014727673     2.4981776058
 H      1.5468369547     1.9200059491    -0.0885884398
 F      1.7935563398     1.8698724502     0.7931741004
 H      1.6246577612     0.4404319631     1.5793284626
 F      1.4202254810    -0.3739305644     1.9479883554
 H     -2.1648515467    -1.7528178404    -0.7697423228
 F     -2.1354084340    -1.2870676671    -1.5591084478
 H     -0.6483950806    -0.8374227778    -2.1106579407
 F      0.2089020516    -0.5733713204    -2.3009405070
          14
Energy: -54.08475991478588 Kcal/mole
 H      0.7611058990     0.9592990702    -1.9875259987
 F      1.0438040395     1.7730043631    -1.6731147111
 H     -1.7511707019    -1.9501352416     1.3941906984
 F     -2.0831871216    -2.4141401973     0.6763094421
 H     -0.1060815479    -0.7905545149     2.4073576903
 F     -0.9928605991    -0.9886106258     2.5309930062
 H      1.5424818215     1.9084555809    -0.0956860149