          14
Energy: -51.47284505568558 Kcal/mole
 H     -0.8934273641     3.7420429827     5.4659771377
 F     -0.7295427475     2.9710001875     4.9974434245
 H     -3.2680757602     6.8955255674     2.0376342644
 F     -4.0300833449     6.9847162381     2.5399075616
 H     -1.1062094652     5.8703389364     1.3695343231
 F     -1.7122559614     6.5580272963     1.3434313733
 H     -1.2232866914     2.6519607568     3.3371005745
 F     -1.5483597676     2.6578623970     2.4796732215
 H     -0.6575810789     3.8217470945     1.6788243981
 F     -0.1278390911     4.5070198757     1.3777203602
 H     -3.8413609706     6.1856403624     4.0303854890
 F     -3.6454397699     5.5464010747     4.6579817096
 H     -2.2672039323     5.1756918197     5.7802185121
 F     -1.4796342357     5.0687147757     6.2375792943
          14
Energy: -50.429968629389776 Kcal/mole
 H     -1.3949659652     1.6303613321     5.5224163373
 F     -0.8293025180     1.6563461303     4.8011406239
 H     -4.7467308969     4.5126255215     2.5088232550
 F     -4.8715565590     4.0917267397     3.3139019901
 H     -3.5689983964     5.0232385963     0.8071557509
 F     -4.4757141602     5.0461912032     0.9421694600
 H     -1.4641303353     2.5053227787     3.6064727663
 F     -1.8161969045     3.1698143524     3.0816975008
 H     -1.8368979405     3.8887687692     1.5495022971
 F     -1.9487796351     4.4678901668     0.8473699070
 H     -4.1698145236     3.6341191060     4.8055161039
 F     -3.7482875171     3.4192629049     5.5910355471
 H     -3.2731905703     1.9308873789     6.6017214438
 F     -2.6570427562     1.2640734890     6.7306016491
          14
Energy: -51.80011350164902 Kcal/mole
 H     -3.8070670803    -1.0753651422     4.6603951457
 F     -4.4941147078    -1.6348496834     4.8966822714
 H     -5.0446831055     3.3725927001     2.0291894654
 F     -4.2605221141     3.3452579466     1.5546019067
 H     -6.2371163684     2.5063279723     4.0624205798
 F     -6.0906028180     3.0214909667     3.3180887528
 H     -6.0788170587    -1.3547861588     4.9457653526
 F     -6.9204004330    -0.9961276229     4.8825951154
 H     -6.8088613911     0.5984132558     5.2454276380
 F     -6.6016038932     1.4616698495     5.4750390119
 H     -3.0881788621     2.9703594679     2.6737864394
 F     -2.5881975791     2.5961484193     3.3452578146
 H     -2.6185877856     1.0543721643     4.0070990111
 F     -2.6892699194     0.1888432972     4.3016373213
          14
Energy: -51.39433577891866 Kcal/mole
 H     -3.6582241032     1.0516623716     6.4637796499
 F     -4.2472860436     0.5403857261     6.9459530855
 H     -5.1961353734     2.2465104814     2.1761013622
 F     -4.5693394863     1.8298180125     1.6522852664
 H     -6.3497752105     3.0776961777     4.1520500634
 F     -6.3198187400     2.7917324538     3.2812938642
 H     -5.9855240159     0.9472159864     7.0394096877
 F     -6.8153992510     1.3244990192     7.1386750253
 H     -6.6002894362     2.7122764320     6.3006522155
 F     -6.2467488265     3.3710104687     5.7696460892
 H     -2.9732419830     1.4599077578     2.1965689662
 F     -2.2051207853     1.3182064573     2.6769850017
 H     -2.4365588073     1.9127931510     4.4354889037
 F     -2.7621423799     2.0913244559     5.2739463627
          14
Energy: -50.10657802221536 Kcal/mole
 H     -5.4684135577     1.2938138549     2.7385472097
 F     -5.7569658072     0.8532201103     3.4892160791
 H     -6.0705956961     7.0993657537     3.4747550767
 F     -5.9195114965     7.0135265616     2.5743694939
 H     -6.2049250043     6.4255116927     5.4257598498
 F     -6.1382652041     7.2835794581     5.1092710176
 H     -5.8002169076     1.7401460706     4.9394606735
 F     -5.8398402935     2.3044492567     5.6611814654
 H     -5.9786607778     3.8949380158     6.0856612930
 F     -6.1679955722     4.7912730687     6.0453523791
 H     -6.4335733047     5.7681722161     1.3764184397
 F     -6.5155719365     4.9192049669     1.0396398265
 H     -5.6424285379     3.3807824009     1.3361516361
 F     -5.0715202662     2.6814708384     1.4971363678
          14
Energy: -51.86105997831389 Kcal/mole
 H     -4.8699638485     1.8334833280     2.8151666148
 F     -3.9735657142     1.7986173904     3.0052817145
 H     -6.2285631650     5.5259266275     6.1476415720
 F     -6.8337651543     4.8772622549     5.9155767451
 H     -4.2216468209     5.9236823818     6.3387056539
 F     -4.9624974621     6.4610797241     6.3955688569
 H     -3.1382925855     2.1442930667     4.3983883486
 F     -2.6798930836     2.4364724675     5.1368936596
 H     -2.8380076216     3.9802068366     5.8910735211
 F     -2.9129906313     4.8427722168     6.1931455541
 H     -7.2745001682     4.6295930289     4.2465163707
 F     -7.3003038112     4.3420957376     3.3761322718
 H     -6.8665171670     2.9978773660     2.7561122538
 F     -6.6054874299     2.1399574801     2.5644721070
          14
Energy: -51.731398360511406 Kcal/mole
 H     -5.7997655749     1.7459367098     1.8641379035
 F     -5.4794902189     0.8910871133     1.7772767288
 H     -4.0220597935     4.0599437008     6.5700390773
 F     -4.8436566927     3.7545036500     6.8394345312
 H     -2.2502845064     3.8027858089     5.3352511683
 F     -2.5296795247     4.4050955638     5.9677465303
 H     -3.8001144727     0.7806744254     2.1851388593
 F     -2.8983739842     0.7970778507     2.3509219074
 H     -2.4314268597     2.0101366115     3.3116864191
 F     -2.4472566683     2.7676476541     3.8282282253
 H     -5.8512062354     3.2964324141     5.6889992359
 F     -6.3368890517     3.0031892715     4.9685759845
 H     -6.4471754484     3.2213870026     3.2357643489
 F     -6.3811149131     3.1770525935     2.3222220862
          14
Energy: -51.84577117252732 Kcal/mole
 H     -3.3130470390     0.6967046320     3.5219972479
 F     -2.5565150311     0.5295154862     3.0314912738
 H     -1.7604331540     2.7961428100     6.3076061984
 F     -2.5431589090     3.0698660180     6.6991480198
 H     -0.3515780793     1.0151727006     5.5659964679
 F     -0.5769736425     1.8901736346     5.4096020769
 H     -2.0570487373    -0.8775348668     3.6576990011
 F     -1.7329095606    -1.6285384255     4.0722064786
 H     -0.5692017833    -1.1087439360     5.3036343127
 F     -0.0905954372    -0.5975892416     5.8957034336
 H     -4.0569906680     2.5473568274     6.7396051077
 F     -4.9047550973     2.2126240411     6.6389153155
 H     -4.9720990662     1.4076114672     5.1769752990
 F     -4.7277376932     1.0109932080     4.3871205808
          14
Energy: -52.08914431832068 Kcal/mole
 H     -2.0606239190     1.8396320662     1.5531793601
 F     -1.3448214105     1.9574867030     0.9922639892
 H      0.4658030176     2.1445169997     7.0436170146
 F     -0.4254819117     2.3509504303     6.9812839290
 H      2.3618578596     1.5856721638     6.1556970399
 F      2.0787091985     1.6021624394     7.0277313893
 H     -0.0400254054     1.8840182619     2.0390455719
 F      0.5370739864     1.7704123453     2.7425645750
 H      1.8174607700     1.6344806626     3.8804279565
 F      2.4754156241     1.6019857680     4.5183374264
 H     -1.4601528683     2.5332092598     5.7006422323
 F     -1.8432808680     2.6924119536     4.8828669342
 H     -2.8153652189     2.2090367679     3.5902263227
 F     -3.1958981860     1.8368766403     2.8435131915
          14
Energy: -51.21596915684154 Kcal/mole
 H     -3.6766492592     3.4461013794     2.3595237462
 F     -3.8619416771     4.3399880593     2.4462550756
 H      1.7881468315     1.4513198512     1.6924107470
 F      1.3791882897     0.8074076660     1.1834716457
 H      1.7318662630     3.7622413898     2.1579076477
 F      2.1756274840     2.9801591126     2.3376638445
 H     -2.4329873757     5.1306197251     1.8852801145
 F     -1.6968935989     5.5780571750     1.5708684732
 H     -0.0509749618     5.5063855488     1.8003948198
 F      0.8494464808     5.4019542559     1.9390466524
 H     -0.1717758281     1.1418567472     0.5190348241
 F     -1.0320933851     1.4408237421     0.4124447823
 H     -2.4197374604     1.6761341797     1.5889322581
 F     -3.0945151615     1.9163569664     2.1615203010
          14
Energy: -51.33398711859142 Kcal/mole
 H     -2.2802350725     2.3913580627     4.7314136811
 F     -2.4030497997     2.1465023763     3.8562844131
 H      1.3460374976     5.9621084171     5.1733024549
 F      1.3324254832     6.1115508502     6.0779408756
 H      0.6039076989     5.6747464183     2.9085629165
 F      1.1539130851     5.7752949170     3.6353868805
 H     -1.6397911636     2.5448716190     2.3708528716
 F     -1.2712234232     2.9082571416     1.6138867015
 H     -0.8907849487     4.5572907145     1.6756599443
 F     -0.6441538101     5.4390440141     1.7263866653
 H      0.0744729750     5.3228425012     6.6427313007
 F     -0.6936962033     4.9126942108     6.9301047396
 H     -1.6069668693     3.6422493920     6.6138448667
 F     -2.0423425792     2.8577965598     6.4241853160
          14
Energy: -52.180293472907564 Kcal/mole
 H     -2.3505433939     2.3550367656     4.2285279428
 F     -2.9243587820     3.0325195552     3.9990895627
 H      2.2865529996     3.3182690606     4.9249177426
 F      2.8021381374     2.6139175084     4.6439375713
 H      0.7097640338     5.0601032400     4.5632999392
 F      0.9564369733     4.4402526468     5.1924475396
 H     -2.7490245095     4.6653412739     3.7671776849
 F     -2.6043171285     5.5707155211     3.7514854477
 H     -0.8889179809     6.0327522611     3.4658174061
 F      0.0274353144     6.0605882818     3.4455493478
 H      1.7283962695     1.3135808166     4.1599736729
 F      1.0875340949     0.7296607751     3.8612730564
 H     -0.5005710277     0.7724751781     4.4374213985
 F     -1.3191705810     1.1131847776     4.6713032921
          14
Energy: -51.31782292257009 Kcal/mole
 H     -1.8523963855     4.1130690412     2.6866854137
 F     -2.0364575097     4.6087830389     3.4358703943
 H      1.6732466810     1.5105732478     4.9192490617
 F      1.3228644066     0.8594119191     4.3769297962
 H      1.7155423551     3.7296649769     6.1398583558
 F      2.0759852041     2.9089346433     5.9465408135
 H     -1.0926872420     5.6108393545     4.3884005535
 F     -0.4744960253     6.1653235267     4.7773426090
 H      0.5573687387     5.5865213918     6.0883474771
 F      1.1600355201     5.2102128274     6.6680660424
 H     -0.0332820697     0.6538298594     3.5884235088
 F     -0.8275173706     0.5425135982     3.1438023477
 H     -1.4427271925     1.8571495664     2.2643702924
 F     -1.5813179497     2.6290410257     1.7891175417
          14
Energy: -52.67604012232364 Kcal/mole
 H     -3.2265570947     2.1936766816     0.1232427007
 F     -3.3120858483     3.1016393026     0.2190430718
 H      1.0000299572     0.5947198499     2.8231497426
 F      0.5611525846    -0.1683715449     2.5663089845
 H      1.0828502462     2.9794318150     2.9336851901
 F      1.3250245631     2.1733019611     3.2975467830
 H     -2.7442950459     3.9873032619     1.5511265512
 F     -2.2346659673     4.2159730781     2.2783660698
 H     -0.5148574152     4.3746786452     2.1428954978
 F      0.3987618827     4.3628117011     2.2206640920
 H     -1.1342540103    -0.1625244441     2.7304017844
 F     -2.0343479955    -0.0351383729     2.6100165416
 H     -2.4587490724     0.3080278145     1.0429323119
 F     -2.6578255577     0.6203510193     0.2040570120
          14
Energy: -50.3851655412234 Kcal/mole
 H     -3.1275444576    -0.5532995340    -0.1329421861
 F     -2.8931633745     0.3331646863    -0.1445909658
 H      1.0987682437    -1.3697302104     3.5936715166
 F      0.6994159827    -2.1334512599     3.2804033722
 H      0.6265446907     0.7722832674     3.7739107588
 F      1.3708091197     0.3041999574     4.0344054318
 H     -1.5199552818     1.2684686314     0.0548281630
 F     -0.8854481742     1.6690780752     0.5818972323
 H     -0.7807277126     1.5184012879     2.1800589393
 F     -0.6444078882     1.4152360531     3.0809822656
 H     -0.2145326493    -2.1945583603     1.9588750178
 F     -0.6983850429    -2.2502540372     1.1819105059
 H     -2.2915820472    -2.6403704556     0.3559252091
 F     -3.0545662231    -2.3782210565    -0.0799897364
          14
Energy: -52.1492233289794 Kcal/mole
 H     -2.4664347578     1.2870458242    -2.0169436180
 F     -2.4098763371     1.7797048568    -1.2455959515
 H      1.0133383520    -1.2412753358    -0.6528904153
 F      1.1707469749    -1.4766807291    -1.5250691965
 H      0.6043897893    -0.0538001555     1.3810836958
 F      0.5152733137    -0.8575613210     0.9487467407
 H     -1.6826221844     2.5710900728     0.0877680304
 F     -1.1977089846     2.8727592233     0.8052245882
 H     -0.0416774899     2.0737075948     1.7250996461
 F      0.5316781797     1.4466894913     2.0700642442
 H     -0.2579993419    -1.9591652361    -2.2901874756
 F     -1.1514119027    -1.9973129914    -2.4932828840
 H     -1.8547716463    -0.5878534654    -3.2313962631
 F     -2.0500919390     0.2920350289    -3.4003199759
          14
Energy: -51.752857637885214 Kcal/mole
 H     -4.1471031941     2.0975970062    -1.3094840697
 F     -4.3741416293     2.1636197779    -0.4234910999
 H      0.5893425041    -1.3045555703    -2.3548051746
 F      0.1503487953    -1.6374694165    -3.0878412547
 H      0.5698613836     0.4195919347    -1.0059171338
 F      1.1524913330    -0.2531608178    -1.2269037307
 H     -3.1781056342     1.8848528285     0.7654273412
 F     -2.4114742114     1.8166951916     1.2639449417
 H     -0.9924001623     1.6848701674     0.2442188414
 F     -0.4083880666     1.6050432721    -0.4582386583
 H     -0.9587233629    -0.3069196250    -3.3720596709
 F     -1.4509159089     0.4598775513    -3.4752952662
 H     -2.9668456805     1.3625209402    -3.1820086920
 F     -3.7201161328     1.7814397187    -2.8689916276
          14
Energy: -51.32932271040893 Kcal/mole
 H     -2.5161916500     0.5802357147    -1.1080436581
 F     -2.9274658932     0.8545293894    -0.3357059878
 H      1.1810293804     2.8434122567    -1.3508542185
 F      0.7818276709     3.0313462600    -2.1547247339
 H      1.5457851592     2.3916076210     0.8441072418
 F      1.9484954390     2.4591305338     0.0230383733
 H     -2.3207352225     2.1494673341     0.6315057653
 F     -1.8332300384     2.6533960233     1.2225079411
 H     -0.2693125161     2.6053636553     2.1362061233
 F      0.6418982690     2.5025350587     2.1330147551
 H      0.3638276260     1.9628943724    -3.3313263084
 F      0.0738184130     1.3564090375    -3.9549922406
 H     -1.2710976512     0.6386935858    -3.2947803249
 F     -1.9317675364     0.3469289924    -2.7297336676
          14
Energy: -52.42536804705699 Kcal/mole
 H     -1.7905629897     0.1273560695    -1.1030015672
 F     -1.6676961999    -0.0324583113    -0.2084334503
 H      2.9690390543     1.7039720449    -3.3782080360
 F      2.5548335701     1.4328024676    -4.1500822985
 H      2.8177836228     2.3402388773    -1.2947108886
 F      3.4232435405     1.8900477800    -1.8158972890
 H     -0.5862129253     1.0870224931     0.5044807568
 F      0.0134335310     1.6934221555     0.8415157356
 H      1.1315032214     2.6026410007     0.1243691528
 F      1.7127186990     3.1536058405    -0.3223022185
 H      0.9996747899     0.6424234548    -4.4441903957
 F      0.1208090177     0.3808034903    -4.4379495037
 H     -1.1361743005     0.6713058146    -3.3064539738
 F     -1.7297718724     0.8468196255    -2.6298995971
          14
Energy: -51.83361217084524 Kcal/mole
 H     -1.5747668948    -2.4357072849    -0.0416708232
 F     -1.3954893698    -2.4853193701     0.8562641466
 H      3.0896515534    -1.7983755474    -3.1356411458
 F      2.4247767395    -1.9821601326    -3.7398378920
 H      3.6052881298    -1.1138707857    -1.2142419526
 F      4.0541700957    -1.3987787771    -1.9613841192
 H     -0.1199775536    -1.3513924509     1.3960427694
 F      0.5781438495    -0.7568209257     1.3955866722
 H      2.0456756619    -0.6820308128     0.6190221220
 F      2.8226625349    -0.6267482599     0.1351582583
 H      1.0862139002    -3.0162549285    -3.6180300671
 F      0.3761051787    -3.5442559627    -3.3775108132
 H     -0.9260549658    -2.7344396016    -2.4833437229
 F     -1.4054254851    -2.2680815053    -1.8559658214
          14
Energy: -51.56380047425755 Kcal/mole
 H      2.0809366654     0.3632321204    -0.9779665904
 F      1.5753945000     0.5764684657    -0.2432242002
 H      2.0461453181    -4.7510829437    -0.6255081049
 F      1.9979157590    -4.6383764345    -1.5342765860
 H      1.9032451392    -3.9925567139     1.7033505605
 F      2.3494586506    -4.5156152866     1.0965621033
 H      0.7545838278     0.0395103630     1.1607999920
 F      0.4079626909    -0.1867619490     1.9790564484
 H      0.8626533964    -1.7484262039     2.4065553410
 F      1.1654289086    -2.6139731685     2.4132217792
 H      3.0643695527    -3.5071431395    -2.0940115035
 F      3.5739865802    -2.8690545707    -2.5111715012
 H      3.1868581393    -1.1361089564    -2.2911467225
 F      3.0096084800    -0.2427074326    -2.1848204532
          14
Energy: -51.53343787533021 Kcal/mole
 H      3.1977849358     0.3317889656     0.0294022355
 F      2.2822066287     0.3168871027    -0.0194167983
 H      1.2311892665    -2.7537274006    -2.2834031440
 F      1.7633263408    -2.2159324276    -2.8015688522
 H      0.2429752275    -3.2640665037    -0.3262783361
 F      0.4812771205    -3.7380576096    -1.0742313021
 H      1.1874480899     0.1758012271     1.1387028788
 F      0.5549187108    -0.0508446389     1.7627439319
 H     -0.2484202694    -1.4353098759     1.2776223493
 F     -0.4049902495    -2.1532751980     0.7290782420
 H      3.3829156395    -2.0574856396    -2.3709435022
 F      4.1927261194    -1.8405291594    -1.9994251686
 H      4.7955530440    -0.7120699292    -0.7858706994
 F      4.8012762233    -0.0837337560    -0.1180010275
          14
Energy: -52.58789626824044 Kcal/mole
 H      2.9503459369    -0.3853124624    -1.1184626125
 F      3.4343359308    -0.5643783659    -0.3604533197
 H      0.9343800432    -3.9330743147     0.3332927460
 F      0.9283276697    -3.9799008482    -0.5824908772
 H      0.9022736688    -2.9128736142     2.1754318523
 F      1.0916036747    -3.7832848192     1.9576533339
 H      3.0567814593    -0.0188209501     1.2536953555
 F      2.7801823884     0.0648941037     2.1239675795
 H      1.4532182299    -0.8168568901     2.4170523549
 F      0.6842783075    -1.3149738490     2.4557807808
 H      1.2310816076    -3.3060675940    -2.0656364527
 F      1.3400476398    -2.8270788107    -2.8399652907
 H      1.7280326307    -1.3399919481    -2.6882629270
 F      1.9695301323    -0.4805528285    -2.4786624584
          14
Energy: -52.08280787046613 Kcal/mole
 H      1.7631305407    -0.3190372770    -0.9533649262
 F      2.0892742655     0.1067282631    -0.2095618773
 H      0.4123151109    -5.5551369738     0.5869043419
 F      0.2987999828    -5.6676116670    -0.3160645164
 H      0.2119952750    -4.2020890524     2.3710677332
 F      0.7026091288    -4.9710066680     2.2764487772
 H      1.6735842098    -0.3981581988     1.3235392311
 F      1.3485494238    -0.7148811752     2.1203628904
 H      0.0937415511    -1.8914126998     2.1824424561
 F     -0.4139144727    -2.6550382531     2.1895400600
 H      1.2419675810    -4.4498995499    -1.3122242775
 F      1.6855854324    -3.7585310811    -1.7197802150
 H      1.4039265867    -2.1634862051    -2.0670749207
 F      1.3155915791    -1.2612759184    -2.2052868051
          14
Energy: -52.51560946070765 Kcal/mole
 H      2.1229106570    -1.8605912461    -0.3266500186
 F      2.0633219836    -1.3518685290     0.4339677482
 H      2.9358274989    -5.6650533801     1.3924158617
 F      2.7991189555    -6.1962956958     0.6575816110
 H      2.3889323831    -4.1058593595     3.0893075451
 F      3.0302240233    -4.3427544263     2.4781490063
 H      0.7955015966    -1.2936462757     1.6662175186
 F      0.3349655827    -1.3906805572     2.4532244615
 H      0.9403846984    -2.5974343949     3.4253641107
 F      1.1534856667    -3.3381137689     3.9222253007
 H      3.3643312153    -5.3517060229    -0.7107719021
 F      3.6116170296    -4.8406852961    -1.4309083773
 H      2.5534397099    -3.5723989444    -1.7219124746
 F      1.9994738977    -2.8464581602    -1.6381219211
          14
Energy: -52.69828951487652 Kcal/mole
 H     -0.7486117870    -3.3129325458    -0.0400161010
 F     -1.1191147208    -3.5487571248     0.7649704479
 H      4.2601152099    -3.7504172717     1.1619405312
 F      4.3712100259    -3.6989228508     0.2531527306
 H      3.0802301975    -3.3628642405     3.0417267973
 F      3.7576383715    -3.9044173079     2.7438552798
 H     -1.0245174891    -2.6148834670     2.2019528229
 F     -0.7701369759    -2.1809484511     2.9686861250
 H      0.8536613860    -2.1518366116     3.2006787928
 F      1.7679163826    -2.1859749968     3.2628187299
 H      3.2190969575    -3.5337429325    -0.8450939426
 F      2.5306569538    -3.3633030236    -1.4263766610
 H      0.8128930172    -2.9129292508    -1.4565309889
 F     -0.0751243905    -2.6883542050    -1.4131704942
          14
Energy: -51.95719978517785 Kcal/mole
 H      0.0310181601    -2.3383009016     0.8431881084
 F     -0.7074752962    -2.1659264574     1.3587494199
 H      4.2776319097    -4.6593335269     2.3422373838
 F      4.7397397407    -4.6866475029     1.5506571294
 H      2.5142380204    -5.0893219553     3.4644105052
 F      3.3172766816    -4.6972706091     3.6701133261
 H     -0.8670787825    -3.1423751859     2.6249919951
 F     -0.8237363640    -3.8134203855     3.2484571303
 H      0.3228301541    -5.0569258832     2.9876308740
 F      1.0723806346    -5.5676837117     2.8527623537
 H      3.9943896634    -4.1840194359     0.2007661567
 F      3.6226953715    -3.7310614116    -0.5046141533
 H      1.9417631512    -3.3152832840    -0.4272276431
 F      1.1199285150    -2.9173072361    -0.3430142468
          14
Energy: -51.46564736780334 Kcal/mole
 H     -0.0523855909    -4.4827209132    -0.9396629395
 F     -0.9342092379    -4.5931668443    -0.7136590636
 H      4.1278674193    -2.4076212354     2.0972290357
 F      4.6149039917    -1.7765235566     1.6440181609
 H      2.1724214018    -3.6832542535     2.6091418447
 F      3.0878704490    -3.6370831554     2.5824909221
 H     -1.1980769391    -4.9529550441     0.8926957866
 F     -1.2364144812    -4.9561642429     1.8088884159
 H     -0.2279013043    -3.7498052393     2.3789467734
 F      0.5181517165    -3.2391813580     2.5324301343
 H      3.9194083746    -1.8278113116     0.1194134447
 F      3.4935729707    -2.1063638806    -0.6434506815
 H      2.4282251244    -3.4753826518    -1.0562645554
 F      1.7138688760    -4.0499307190    -1.0343860538
          14
Energy: -52.66013222734638 Kcal/mole
 H     -1.4660101948    -4.7698475713    -1.3695538115
 F     -2.2679361820    -4.5682924004    -0.9730954603
 H      3.2246374383    -2.8702267535     0.3394265197
 F      3.7044789520    -3.2292526831    -0.3546494874
 H      1.5190131299    -3.0043297501     1.9344698112
 F      2.2673402774    -2.4993635630     1.7735206570
 H     -2.3458015092    -3.9268572557     0.5447593105
 F     -2.1532277899    -3.5214876816     1.3444341637
 H     -0.6217815800    -3.9302185144     1.7205685081
 F      0.2465821623    -4.1847033933     1.8691311467
 H      3.1224841689    -4.5594061206    -1.0049624358
 F      2.6705704441    -5.2745305257    -1.3588834307
 H      0.9812985330    -5.3059980644    -1.6764103614
 F      0.0799669582    -5.2034544114    -1.8104819521
          14
Energy: -53.203746781281495 Kcal/mole
 H     -0.9528281624    -3.4662063829    -2.4747368431
 F     -1.3155305941    -3.0184128693    -1.7614228063
 H      2.3059899996    -3.2967541857     0.0863512144
 F      2.6506031269    -3.2469528491    -0.7619710235
 H      0.9855320291    -4.0799059462     1.8131441861
 F      1.5720805594    -3.4066421686     1.6044201877
 H     -1.8646272645    -3.8631062116    -0.3772319912
 F     -2.0911695116    -4.2951315544     0.3992483456
 H     -0.9376537168    -4.9925708096     1.4412634646
 F     -0.2235643952    -5.2082665775     1.9745933591
 H      2.5013918323    -3.9273527926    -2.2621312593
 F      2.2812030924    -4.2884085135    -3.0757925433
 H      0.7017990653    -4.2964446135    -3.5612707260
 F     -0.2031304917    -4.1993938097    -3.6733985034
          14
Energy: -52.81357025126995 Kcal/mole
 H     -0.9170559057    -4.6735971146    -2.0542292564
 F     -1.3557417767    -4.5885863410    -1.2534690707
 H      1.9493154909    -2.0567985649     0.4475254283
 F      2.4724255252    -2.0014474474    -0.3035944995
 H      0.9006928974    -2.9655090925     2.1194532202
 F      1.1112472199    -2.1049110554     1.8829645400
 H     -1.5488274929    -5.1472985007     0.3555272462
 F     -1.4666232219    -5.4038783018     1.2320534942
 H     -0.0388860511    -4.9948493900     1.8990243254
 F      0.7415864672    -4.6596380158     2.2445456457
 H      2.2854019372    -2.5582448620    -1.8316697209
 F      2.0739590423    -2.8862956883    -2.6614670199
 H      0.9087266261    -4.0019814800    -3.1101558450
 F      0.2658936962    -4.6330676560    -3.2815765631
          14
Energy: -53.124579100559075 Kcal/mole
 H      0.1011279565    -6.8302134943    -1.9813822137
 F     -0.6675298972    -6.9125997200    -1.4881615594
 H      1.3814147658    -2.5713776361    -0.0791935465
 F      1.7391757060    -2.2886921192    -0.8747970962
 H      1.3060781166    -4.2466927564     1.4720416819
 F      0.8490647107    -3.4810533553     1.2579761446
 H     -0.2498937041    -7.1781019684     0.0663613744
 F      0.0720643287    -7.2567648847     0.9213725853
 H      1.3557741888    -6.3255515465     1.4507621880
 F      1.9819661199    -5.6921394124     1.6688487161
 H      1.9652193233    -3.3491094318    -2.1168485812
 F      2.1452554898    -3.9808162255    -2.7567098987
 H      1.6620957677    -5.5675863960    -2.9213694439
 F      1.4593267984    -6.4538318052    -2.8016079316
          14
Energy: -52.56784049426905 Kcal/mole
 H     -0.4849696237    -6.8922504186    -2.1330359949
 F     -1.0037813652    -7.0221084465    -1.3881465605
 H      0.8653068777    -2.9790909535    -1.5912415291
 F      1.3471086465    -3.1541419701    -2.3515790839
 H      0.0524936613    -3.5654810639     0.4910967084
 F      0.0351645124    -2.9419948303    -0.1811038697
 H     -0.8791000310    -7.0179181842     0.2851947200
 F     -0.7127442040    -6.9642431824     1.1853801081
 H     -0.0071199538    -5.5240438939     1.6315019901
 F      0.2319057142    -4.6477516357     1.7574686853
 H      2.3294584695    -4.4930502250    -2.6194071114
 F      2.6622991160    -5.3333330472    -2.7744260872
 H      1.4344573625    -6.2175905978    -3.2021147266
 F      0.6161166514    -6.6201951381    -3.2975980484
          14
Energy: -52.6216885695478 Kcal/mole
 H      0.7843145009    -7.4049720174    -1.3434326562
 F     -0.0956308972    -7.3757646819    -1.5998152374
 H      2.5122398960    -3.0457584212     0.1114737008
 F      3.3517527273    -3.4126387561     0.1502812501
 H      0.3253439192    -2.9385775494     0.7889815975
 F      0.9949275564    -2.4383419767     0.4117401303
 H     -1.1695651106    -6.5862815017    -0.6333786283
 F     -1.7773963382    -6.1561963298    -0.0981619023
 H     -1.2070300051    -4.8114245710     0.7214051662
 F     -0.8916407050    -4.0962746973     1.2009666821
 H      3.7393932281    -4.9572190522     0.4317441678
 F      3.8227106509    -5.8661686567     0.5198226752
 H      2.9871774485    -6.9905516001    -0.3621247808
 F      2.3816525186    -7.4683028802    -0.8580907814
          14
Energy: -52.662626719265305 Kcal/mole
 H      0.8016260898    -6.7741652786    -1.1775142025
 F      5.88314E-500    -7.0623309636    -0.8378975536
 H      3.5621625922    -2.5013354869     0.6659009855
 F      4.3371852389    -2.5265219359     0.1764170328
 H      1.3785435155    -2.5088981201     1.1022680633
 F      2.1878511848    -2.5136121975     1.5334152238
 H     -0.7203973037    -5.7897440568     0.1125778733
 F     -0.9585829884    -4.9682857941     0.4432784964
 H     -0.4033771599    -3.4022592545     0.2219114430
 F      0.0089895971    -2.5860035767     0.1543146522
 H      4.5255963858    -4.1893746937    -0.2963614026
 F      4.3166969921    -5.0301536703    -0.5969287924
 H      2.9182726295    -5.6463306707    -1.3464022827
 F      2.1038838308    -5.8887433762    -1.6912152244
          14
Energy: -52.41648908560845 Kcal/mole
 H     -0.0738403434    -7.3630354346     0.0103714715
 F     -0.8409391127    -7.1185447595     0.4493165568
 H      3.4891402185    -3.6415940129     0.8942313313
 F      4.0152124111    -4.3767661766     0.7404167094
 H      1.4670358536    -2.6235817139     0.5871661338
 F      2.1879688625    -2.4912710629     1.1382001512
 H     -1.4047544506    -5.6011461663     0.2911018995
 F     -1.5821312487    -4.7044884530     0.3648000455
 H     -0.4574884002    -3.6442015781    -0.1140941118
 F      0.2108115198    -3.1201688966    -0.4600044551
 H      4.0850797721    -5.8846350225    -0.1011733817
 F      3.8939316683    -6.7170996106    -0.4348710173
 H      2.2495668041    -7.1404285443    -0.7485348483
 F      1.3736951020    -7.3990927264    -0.8311823064
          14
Energy: -52.80959116078725 Kcal/mole
 H     -0.3676053102    -7.1918896218    -0.8956503346
 F     -1.2799439793    -7.1565589898    -0.8103338684
 H      2.7397990684    -3.7263402743     1.3415717122
 F      3.3235133140    -4.4217897407     1.2130543240
 H      0.6269840327    -2.5921013788     1.4643696558
 F      1.4881873814    -2.6086818505     1.7789215276
 H     -1.7536424268    -5.4830711439    -0.7687516236