          14
Energy: -53.33084571678316 Kcal/mole
 H      0.5282981063     1.4921530752    -1.8351603965
 F      1.3731575120     1.7618785481    -1.6020300601
 H     -0.5371428652    -2.6011323297     1.2575482928
 F     -1.4065602260    -2.3095945736     1.2604100325
 H      1.8314826470    -2.4480002942     1.2344314575
 F      1.0673031588    -2.9544616542     1.2548177442
 H      2.4420129274     0.4832198684    -1.4688305853
 F      2.9946705858    -0.2219271022    -1.2733152084
 H      3.1815570082    -0.9366157788     0.2146088142
 F      3.1103641897    -1.3460942054     1.0320120200
 H     -1.9938178246    -0.9013000428     0.5287592504
 F     -2.0898650564    -0.1220777583     0.0549696761
 H     -1.3628013350     0.3715028394    -1.3906268421
 F     -0.8876152991     0.7435875059    -2.0810182038
          14
Energy: -53.68452757518335 Kcal/mole
 H      0.5357957082     1.3056269504    -2.6678864654
 F      1.3955116033     1.6243172941    -2.6532562058
 H     -0.6430346867    -2.3360736374     1.3296561757
 F     -1.4979191468    -2.0304362514     1.2006315727
 H      1.5610560084    -1.9543764876     1.3029013591
 F      1.0010108991    -2.6730772935     1.4063790245
 H      2.5114963366     0.4951866582    -2.0106009659
 F      3.0181612130    -0.1347706998    -1.5777806450
 H      2.6550477376    -0.4384684416     0.0255815444
 F      2.4401024513    -0.5934179756     0.9034643189
 H     -1.7460026863    -0.6184290554     0.4379255089
 F     -1.7429462618     0.2086950041     0.0420145993
 H     -1.2807290414     0.4439904203    -1.5171993937
 F     -0.9348197062     0.5366966065    -2.3613802362
          14
Energy: -53.58588996164252 Kcal/mole
 H      0.4698327790     1.8872947562    -1.9681382063
 F      1.2972004044     1.8672509615    -1.5732330800
 H     -1.0875987354    -1.8040768990     0.9655811576
 F     -1.8148464046    -1.7333878590     0.4115027450
 H      1.2467638554    -1.7611525149     1.5060265550
 F      0.3694081309    -1.7593789498     1.7727338610
 H      1.9698987533     0.3421646815    -1.4971649928
 F      2.2597566322    -0.5274400015    -1.4714919447
 H      2.6482058062    -1.2219402282    -0.0064015135
 F      2.7353430246    -1.5357887643     0.8508004473
 H     -2.0687168204    -0.1860600925    -0.0376033971
 F     -2.1334513186     0.6917516715    -0.2947900060
 H     -1.5606676398     1.3883405419    -1.7423793267
 F     -1.0916547997     1.7457289256    -2.4446538449
          14
Energy: -53.747930275593646 Kcal/mole
 H     -0.0062794196     1.7357726408    -1.4158867789
 F      0.7850496764     1.8159983096    -0.9595414012
 H     -0.8247629934    -2.2845398117     0.6931687213
 F     -1.3413193230    -2.4211170607    -0.0520864118
 H      1.0109519382    -1.6649181884     1.8181572960
 F      0.1261939747    -1.8710729937     1.9430273974
 H      1.9107584699     0.5605407741    -1.0690737032
 F      2.4544082925    -0.1757678222    -1.0126509998
 H      2.6687438116    -0.8742936842     0.4906553216
 F      2.5718253534    -1.2501970983     1.3214335325
 H     -2.2878542387    -1.2788654722    -0.7813826003
 F     -2.6849972412    -0.5630753762    -1.1946754434
 H     -1.9069692992     0.6616844239    -1.9123900647
 F     -1.3999387922     1.3619082131    -2.2181607468
          14
Energy: -53.79388071258762 Kcal/mole
 H      0.0853422493     0.7660598753    -1.5813950191
 F      0.6343349071     1.2436687129    -1.0233754317
 H     -1.3974169224    -2.5208482629     1.2267651216
 F     -2.1064064505    -2.8774930982     0.7673880321
 H      0.8170522206    -1.8860664982     1.6688183398
 F     -0.0631028079    -1.6954415710     1.8416716390
 H      2.1122152409     0.6035403649    -0.5556534593
 F      2.8490407005     0.1150198526    -0.3120863205
 H      2.6248275282    -1.2001366749     0.6477990545
 F      2.3637881073    -1.9157583663     1.1583213514
 H     -2.6017123074    -1.9671121155    -0.4871274673
 F     -2.7950355345    -1.3937201489    -1.1761389205
 H     -1.6073819792    -0.6616736531    -2.0185149221
 F     -0.8540011748    -0.3145519597    -2.4094278198
          14
Energy: -53.77425460579087 Kcal/mole
 H      0.1265567962     0.9449378600    -2.0165751288
 F      0.6775431023     1.2438878676    -1.3472979192
 H     -1.0404074586    -2.4455078186     0.7308944340
 F     -1.4698196681    -2.7567219048    -0.0171964341
 H      0.6514944421    -1.6860691863     1.9811155631
 F     -0.2619934058    -1.7625178722     2.0052930338
 H      1.9315207578     0.2299855297    -0.9024705306
 F      2.6074241826    -0.3121699828    -0.6022856534
 H      2.4530125523    -1.0427433987     0.8713319810
 F      2.2643515093    -1.4496354876     1.6711662381
 H     -2.1996722559    -1.6773055804    -1.0118043234
 F     -2.5838218330    -1.0139064216    -1.5150136821
 H     -1.5566811198    -0.2190294224    -2.5523583043
 F     -0.9043421205     0.2056302221    -3.0371335267
          14
Energy: -53.76573423676743 Kcal/mole
 H      0.3055591024     0.8311097673    -1.7073123339
 F      0.7125079425     1.3681916768    -1.0853600335
 H     -1.5024437721    -2.7647494194     0.8770709656
 F     -2.0656159648    -3.1241513083     0.2489337484
 H      0.4773641790    -1.9492577999     1.8093690544
 F     -0.4364490704    -1.9493223213     1.8857519127
 H      1.8054505115     0.9073743133     0.0463098500
 F      2.3815843721     0.6247064160     0.7013347614
 H      2.2972252656    -0.9111335275     1.3064169059
 F      2.0779517062    -1.7584051013     1.5801667668
 H     -2.4463250103    -2.1723677305    -1.0863606703
 F     -2.5114569912    -1.5574552563    -1.7635087149
 H     -1.2072653742    -0.7693440511    -2.3456500022
 F     -0.4627003216    -0.3343472246    -2.6575628801
          14
Energy: -53.88311345853967 Kcal/mole
 H     -0.0146539549     0.7931823855    -1.0680443910
 F      0.1767349825     1.3166720588    -0.3398838067
 H     -1.0244835744    -3.6423144778     0.6791214750
 F     -1.6581261344    -3.8299115946     0.0433593906
 H      0.8917628928    -2.6919371697     1.4545305754
 F      0.1298023000    -3.1221252805     1.7288355961
 H      1.4659358685     1.0437118978     0.6793622833
 F      2.1365182664     0.7065982707     1.2062044324
 H      2.1958378706    -0.9313047623     1.0122752711
 F      2.1448418172    -1.8287500641     0.8309459220
 H     -2.1106982264    -2.6158966404    -0.9436144044
 F     -2.2579439213    -1.9011986547    -1.4989651895
 H     -1.0586684937    -0.8902626052    -2.0632737568
 F     -0.3513516897    -0.3362699430    -2.2468059588
          14
Energy: -53.71041482897675 Kcal/mole
 H     -0.0839346071     1.0559676717    -1.8748156035
 F      0.3482172893     1.6981939315    -1.3832068468
 H     -0.6698050879    -3.7615828895     0.2181959323
 F     -1.4210345338    -3.8521762491    -0.2998158077
 H      1.2928420489    -2.8562175199     0.9450935083
 F      0.6699302936    -3.4921580337     1.1652062249
 H      0.8955354465     1.1757106491     0.0989060367
 F      1.1851516848     0.7856379549     0.8766301059
 H      1.8929469827    -0.6604651271     0.6231306644
 F      2.1717420320    -1.5137886431     0.4360443273
 H     -2.0859936695    -2.4461951858    -0.8751969202
 F     -2.3282079316    -1.5817097630    -1.0619754120
 H     -1.3931706659    -0.7442027957    -2.1181535373
 F     -0.7889416829    -0.2306402282    -2.5786422184
          14
Energy: -53.633580434717246 Kcal/mole
 H     -0.1514860024     0.8813653767    -2.0466967774
 F      0.4502564410     1.4602261755    -1.6675988912
 H     -0.5561584268    -4.0658801999     0.3030234928
 F     -1.3134691897    -4.1731010756    -0.2028155055
 H      1.3203865364    -2.8900664879     0.9531567757
 F      0.7999456823    -3.6158163381     1.1612852752
 H      0.9890442513     1.0781724218    -0.1388112657
 F      1.3331782542     0.8292592432     0.6739021017
 H      2.0149042373    -0.7029412673     0.6860675355
 F      2.2525472744    -1.5747661326     0.5300669233
 H     -2.0860483579    -2.7991034554    -0.7130174189
 F     -2.3700066680    -1.9708169933    -0.9854109116
 H     -1.6331291673    -0.9591404344    -2.0449877288
 F     -1.1776347365    -0.3737577268    -2.5841916877
          14
Energy: -53.625614714705605 Kcal/mole
 H      0.0135733151     0.6127702199    -2.3623845915
 F      0.4756284450     1.3040423110    -1.9756845099
 H     -0.6559286919    -3.9024707297     0.5802661443
 F     -1.4274034825    -4.0041946360     0.0951188530
 H      1.4092072068    -2.9175771573     0.8950576442
 F      0.8191553857    -3.4676690095     1.3310929668
 H      1.0233761356     0.8474237850    -0.5155751965
 F      1.3418260155     0.4909569737     0.2669911499
 H      2.0334136130    -0.9984723539     0.1625383181
 F      2.3094641009    -1.8555877190    -0.0107775181
 H     -2.0379329504    -2.7017940556    -0.7523282753
 F     -2.2620918601    -1.9094966787    -1.1559452344
 H     -1.3962352729    -1.1003047111    -2.3227698363
 F     -0.8682584536    -0.6444547498    -2.9180263280
          14
Energy: -53.73493366893862 Kcal/mole
 H     -0.0513151189     1.1782226284    -1.9844362434
 F      0.5821006517     1.6303229606    -1.4993808332
 H     -0.1968731395    -3.8134935897    -0.3803516064
 F     -0.8421904479    -3.7848823549    -1.0312248419
 H      1.5588830976    -3.0109659029     0.6722977745
 F      0.9556661826    -3.6972711733     0.7497795741
 H      1.1321965352     1.0365526644    -0.0731413850
 F      1.4131882709     0.6393837696     0.7041548993
 H      2.1487791305    -0.8461168538     0.4934303026
 F      2.5142014201    -1.6695306620     0.3221257470
 H     -1.6656226443    -2.3725485522    -1.1001026065
 F     -1.9939057820    -1.5200727630    -1.0200762954
 H     -1.5192660852    -0.3649019341    -2.1019252340
 F     -1.1475778908     0.2279151224    -2.6946349636
          14
Energy: -53.599676904082 Kcal/mole
 H     -0.2671728158     1.1669236625    -2.1703045730
 F      0.5145587317     1.4974995089    -1.8231671399
 H      0.0532328734    -3.8070442700    -0.4964492100
 F     -0.6378757439    -3.8084861875    -1.0991562698
 H      1.8276497792    -2.9012154667     0.5851106274
 F      1.3242016796    -3.6671910547     0.5584571189
 H      1.0041538468     1.0613867478    -0.2636522303
 F      1.1928532834     0.6584637812     0.5381798005
 H      2.1646883310    -0.6556182181     0.6055103556
 F      2.6141549655    -1.4549071404     0.6079523187
 H     -1.8554046366    -2.5670081537    -1.3050392889
 F     -2.3658633200    -1.8192677923    -1.4506596320
 H     -1.9724983226    -0.3769002227    -2.1623467616
 F     -1.6932605696     0.4220529177    -2.5153186540
          14
Energy: -53.80249940677673 Kcal/mole
 H     -0.7646714829     1.5889170379    -1.6125782447
 F     -0.1834493468     2.0553088446    -1.0782108513
 H     -0.3148221685    -3.8308636131    -0.4291465854
 F     -0.9762851583    -3.7905889672    -1.0629712189
 H      1.4190645997    -2.8839724497     0.5559804181
 F      0.8688499705    -3.6071524263     0.6791209195
 H      0.6018367973     1.2395424780     0.1544274497
 F      1.0173166162     0.6662617289     0.7371921560
 H      1.9121640834    -0.7070687374     0.4704351120
 F      2.2748748447    -1.5315051712     0.2982884585
 H     -1.9401337724    -2.4286193491    -1.0130522786
 F     -2.3344632744    -1.6024157408    -0.9603185924
 H     -1.9804447831    -0.2569727666    -1.9038661306
 F     -1.7782334539     0.5017253439    -2.3775503666
          14
Energy: -53.754289293251446 Kcal/mole
 H     -0.5624502544     1.3784105030    -1.6778819263
 F      0.1678273723     1.7274085958    -1.2468553386
 H     -0.3308188764    -3.4846549518    -0.3166971210
 F     -0.8600893838    -3.3842029442    -1.0587693035
 H      1.2409701255    -2.8167386765     0.9544968050
 F      0.6072742447    -3.4756241034     1.0265282210
 H      0.6311406904     1.1196111549     0.2463378310
 F      0.8436260567     0.6169159127     0.9832479087
 H      1.8738356480    -0.6898316131     0.8652239847
 F      2.2648745867    -1.5176742787     0.8137063242
 H     -2.1245741561    -2.3350803741    -1.1555594509
 F     -2.7329462456    -1.6513987595    -1.2134546200
 H     -2.2711696000    -0.2104980709    -1.8820579521
 F     -1.8920407528     0.5350261753    -2.2580152843
          14
Energy: -53.75300972180911 Kcal/mole
 H     -0.4216648926     1.5489533734    -1.8814405707
 F      0.3717177581     1.8859923752    -1.5686504160
 H     -0.2173990014    -3.1676297358    -0.1927945541
 F     -0.7667426093    -3.0738197324    -0.9210186156
 H      1.4986935162    -2.5291002026     0.9032603364
 F      0.8489156617    -3.1542848680     1.0700592388
 H      0.9298446036     1.3477133859    -0.1613621542
 F      1.2552623024     0.9794635181     0.6128370167
 H      2.0847375378    -0.4403037849     0.4745903528
 F      2.4569696256    -1.2775688702     0.4382661223
 H     -1.9615915452    -1.8987939719    -0.9562915527
 F     -2.5180985288    -1.1700697345    -0.9440456107
 H     -2.0835051220     0.0636344846    -1.9616697997
 F     -1.7464603768     0.7503246259    -2.4673836413
          14
Energy: -53.81836874825662 Kcal/mole
 H     -0.4302274515     1.4322733415    -2.1125661454
 F      0.2513741829     1.8240133956    -1.6404984151
 H     -0.0843892233    -3.3568152340    -0.4359931335
 F     -0.4827549632    -3.1686085925    -1.2402144945
 H      1.2282720127    -2.7527135791     1.1386792017
 F      0.6567139917    -3.4585413158     1.0121184072
 H      0.5506065956     1.0747067631    -0.1735119028
 F      0.5934808881     0.5495639506     0.5770051333
 H      1.6461940395    -0.6222069972     1.0646425764
 F      2.1398097670    -1.3692636018     1.2624782230
 H     -1.7718232498    -2.1997240412    -1.5229699201
 F     -2.4409988637    -1.5880410127    -1.6605812218
 H     -1.9971298184    -0.2137342972    -2.4258207785
 F     -1.6529002856     0.5603737750    -2.7767505738
          14
Energy: -53.67286216853968 Kcal/mole
 H     -0.6745090556     1.3948037874    -2.0799375412
 F     -0.0236923632     1.7600909916    -1.5471224782
 H      0.0167355980    -3.0047934324    -0.2508950598
 F     -0.2547276211    -2.8116477313    -1.1052319131
 H      1.1594750666    -2.4897613244     1.4631445675
 F      0.5484066993    -3.1524042082     1.2946546301
 H      0.3666268762     1.1662328017    -0.0998006968
 F      0.6192977273     0.7945443044     0.6995078182
 H      1.6383993929    -0.4139033652     1.2073508704
 F      2.0911698567    -1.1588721909     1.4917965694
 H     -1.7051169713    -2.0995755213    -1.4762588424
 F     -2.4631175391    -1.6016117680    -1.6117440429
 H     -2.1767920560    -0.2342685209    -2.4694108117
 F     -1.8421304855     0.5226547168    -2.8643257968
          14
Energy: -53.56235127664381 Kcal/mole
 H     -0.7735043334     1.2691244037    -1.8824223101
 F      0.0232621478     1.5713257121    -1.5437092403
 H      0.1282550099    -3.1970308715    -0.8614568515
 F     -0.3894465179    -3.2461787224    -1.6167439604
 H      1.4259918213    -2.2446363169     0.7305139982
 F      1.0581478535    -3.0370671649     0.4518867086
 H      0.2253338753     1.4698176613     0.0669992883
 F      0.4042370798     1.3711602906     0.9609508343
 H      1.3936692166     0.0453456791     1.1924189804
 F      1.8983419680    -0.7196148894     1.1603293765
 H     -1.8056602322    -2.3972783404    -1.6314638115
 F     -2.5255126799    -1.8463901572    -1.4928143860
 H     -2.4262474976    -0.2790146433    -2.0849809903
 F     -2.1904546629     0.5562481922    -2.3809991227
          14
Energy: -53.70637996324288 Kcal/mole
 H     -1.4336781831     1.7450808871    -1.6026341417
 F     -0.8463446067     2.2444206478    -1.1060577897
 H      0.0976081726    -3.2609913679    -0.3984917563
 F     -0.4493404860    -3.2082446490    -1.1326265862
 H      1.3740452489    -2.2198571960     1.1453656615
 F      1.0055292838    -3.0500981344     1.0197274207
 H     -0.2309963241     1.6632181547     0.2889322127
 F      0.0805366079     1.2346834606     1.0373934663
 H      1.3385624185     0.0988914513     1.1260068513
 F      1.9138577169    -0.6150793266     1.1390470986
 H     -1.7573349873    -2.2239530238    -1.3823921360
 F     -2.4540143622    -1.6292468591    -1.4254203392
 H     -2.5032216755    -0.1111124521    -2.1751646331
 F     -2.4157766208     0.7496977656    -2.4788884081
          14
Energy: -53.66959913809539 Kcal/mole
 H     -0.6576339223     1.7451137724    -1.8346104130
 F     -0.0418098179     2.2026782730    -1.3323312076
 H      0.1929533737    -3.2331568340    -0.3655935203
 F     -0.3058687120    -3.1879848130    -1.1337243785
 H      1.4896121377    -2.1675470957     1.1065206374
 F      1.0140999138    -2.9493781707     1.0472138492
 H      0.1987786314     1.5926472385     0.1880214519
 F      0.2803127738     1.2125908154     1.0185624195
 H      1.4709260569     0.0824941031     1.1409569940
 F      2.0726300868    -0.6093328958     1.1262374816
 H     -1.4729695235    -2.0940777470    -1.1058363137
 F     -2.0523529294    -1.3833735343    -1.0956681801
 H     -1.9129502826    -0.0720177919    -2.2052354427
 F     -1.7044987064     0.7082240670    -2.6395850506
          14
Energy: -53.81110043812626 Kcal/mole
 H     -0.8334397570     1.4665224694    -1.4749937427
 F     -0.7701816828     2.1196732360    -0.8344615482
 H     -0.3805742101    -3.1886918400     0.3209499355
 F     -0.7517870653    -3.4352446208    -0.4804873623
 H      0.9369808833    -1.8124503003     1.5442861733
 F      0.3438950031    -2.4993632165     1.6757729953
 H      0.2274743597     1.9382281108     0.5167476224
 F      0.7785435201     1.7418421943     1.2228951653
 H      1.5936917424     0.3282396142     1.1834338009
 F      1.9477378343    -0.5176551365     1.1818731327
 H     -1.7897652370    -2.3479213311    -1.1407549779
 F     -2.3411181195    -1.6799473124    -1.4419355041
 H     -1.5416375762    -0.4819428779    -2.2332071303
 F     -0.9963622857     0.1958911282    -2.5232156092
          14
Energy: -53.6668251090627 Kcal/mole
 H     -0.6491322698     1.8419649425    -1.7431632225
 F     -0.1292531297     2.3590842468    -1.1925251338
 H      0.0884639083    -3.3131504334     0.0253926626
 F     -0.3310844948    -3.3508833939    -0.7891282770
 H      1.2392233461    -2.1508191307     1.5784721274
 F      0.8200946010    -2.9589975997     1.4686192384
 H      0.1886122705     1.8035907494     0.3978071714
 F      0.3863433028     1.4210198524     1.2073940708
 H      1.3894963530     0.1310734905     1.5267220075
 F      1.8748840964    -0.6312235015     1.6822566809
 H     -1.5604919879    -2.2978455506    -1.1672662378
 F     -2.2022751628    -1.6540720602    -1.2879271238
 H     -1.8321803793    -0.2004165923    -2.0503872932
 F     -1.5327868481     0.5895808057    -2.4069775688
          14
Energy: -53.656386268073916 Kcal/mole
 H     -0.8327462692     1.7395174672    -1.6376645405
 F     -0.4004677948     2.2341794190    -0.9978724852
 H      0.1887522223    -3.1416538744    -0.2942225172
 F     -0.0270227500    -3.0452586629    -1.1802462891
 H      1.0300182568    -2.2118101342     1.5454930848
 F      0.5195891200    -2.9521035644     1.3657245296
 H      0.0060039750     1.7880045033     0.6035307565
 F      0.2607093271     1.3690483850     1.3784436255
 H      1.2446661246     0.0356817648     1.5844120695
 F      1.7706147861    -0.7153936723     1.5967689819
 H     -1.3933107065    -2.1352254295    -1.3448106425
 F     -2.0837317317    -1.5318918583    -1.3588252765
 H     -1.8285211025    -0.1568468227    -2.2410776888
 F     -1.5780914219     0.6343290135    -2.6312248037
          14
Energy: -53.84139024217173 Kcal/mole
 H     -0.1727206045     1.6288411061    -1.8755328007
 F      0.3436447153     2.0018349300    -1.2158878479
 H     -0.2026598835    -3.1759198576     0.0045452432
 F     -0.2278803726    -3.1612569036    -0.9119905852
 H      0.3765942214    -2.2007364073     1.8050690231
 F     -0.1246715899    -2.9403946465     1.5988475997
 H      0.0785446259     1.6134353642     0.3771100381
 F     -0.0703102466     1.2721415348     1.2151134683
 H      0.8048401673    -0.0210715191     1.8225217742
 F      1.2125253306    -0.8095729257     2.0526246630
 H     -1.2864684011    -2.0633286667    -1.4729211283
 F     -1.9123872502    -1.4554014831    -1.7549479601
 H     -1.5013987856    -0.0288088007    -2.5408934598
 F     -1.1811293717     0.7680951393    -2.8622353538
          14
Energy: -53.763123425045805 Kcal/mole
 H     -0.3910889978     1.5741381001    -1.9174399765
 F      0.1296480735     1.8689341793    -1.2225895074
 H     -0.0639778673    -2.9181861449    -0.0740161750
 F     -0.2095627355    -2.7068682418    -0.9543790491
 H      0.4789433109    -2.3046252331     1.9937579519
 F      0.1231910446    -3.0429940117     1.5824905550
 H     -0.1862468656     1.2341730408     0.2649383710
 F     -0.4092166397     0.7923110811     1.0369043601
 H      0.5755116066    -0.1533920250     2.0362058201
 F      1.0612397574    -0.8238359258     2.4304926945
 H     -1.5459845259    -1.8303990036    -1.4249686159
 F     -2.2251396422    -1.2752057729    -1.6921722921
 H     -1.7332029605     0.0434812553    -2.5904156189
 F     -1.4040123472     0.7909649795    -3.0072976434
          14
Energy: -53.86080947352124 Kcal/mole
 H     -0.4594543150     1.5836748261    -1.5665965034
 F      0.2691758750     1.8363567528    -1.0704726378
 H     -0.0765549095    -2.9128443932     0.0972733476
 F     -0.1927928183    -2.7111252602    -0.7896805068
 H      0.4443673726    -2.1924315492     2.1335732239
 F      0.1446173976    -2.9723359678     1.7557001628
 H      0.2399041134     1.6521036485     0.5979771857
 F      0.1835153129     1.4572674222     1.4922635761
 H      0.7392478739     0.0825798867     2.3180230235
 F      1.0187027750    -0.7138605503     2.6764593340
 H     -1.5534537700    -2.0400588691    -1.4607385014
 F     -2.2504860136    -1.5664411287    -1.8222924910
 H     -1.9943498948     0.0410789502    -2.2048584792
 F     -1.7502523470     0.9131505450    -2.3490684676
          14
Energy: -53.75955669670802 Kcal/mole
 H     -0.2661308072     1.4727429332    -1.4511101722
 F      0.3917597970     1.6452456440    -0.8360396335
 H     -0.3782218030    -2.8835088322     0.3191187190
 F     -0.4527993611    -2.8197907711    -0.5926198381
 H      0.2930658936    -2.0923015203     2.2482532302
 F     -0.2529681787    -2.7599063824     1.9367415289
 H      0.2167991580     1.5094920598     0.7673439743
 F      0.0874433876     1.3185094003     1.6548583170
 H      0.8697736623     0.0156422466     2.2489568314
 F      1.2274201166    -0.7698458637     2.5587736198
 H     -1.6518541837    -1.9350653818    -1.3370500042
 F     -2.2424822352    -1.3795317357    -1.7653371426
 H     -1.8291433140     0.1078438488    -2.2435094769
 F     -1.4697651847     0.9184909415    -2.4771494805
          14
Energy: -53.94238433548192 Kcal/mole
 H     -0.3353708363     1.5148013288    -1.5870093872
 F      0.3975275636     1.8279949013    -1.1335132775
 H     -0.3691475015    -2.9032795440     0.1764845659
 F     -0.5767080087    -2.8578949446    -0.7155624475
 H      0.5749442472    -2.1260779772     1.9929486893
 F     -1.895315E-40    -2.8065590522     1.7760255619
 H      0.4211551707     1.7079288114     0.5121907979
 F      0.3738267900     1.4947294988     1.4028057975
 H      1.0852961843     0.1167323357     1.9306825497
 F      1.4493356115    -0.6904411026     2.1690841771
 H     -1.9160185514    -1.9820105290    -1.1741739553
 F     -2.5632895218    -1.3784014131    -1.4141433827
 H     -2.0390507338     0.0480650785    -2.0939383100
 F     -1.6569802377     0.8434639530    -2.3434413490
          14
Energy: -53.83801760648059 Kcal/mole
 H     -0.2865065217     1.6492477377    -1.7340260584
 F      0.4634894706     1.8602443079    -1.2504193391
 H     -0.2890404627    -2.6563867488     0.2708959047
 F     -0.5538646397    -2.4359726353    -0.5789127643
 H      0.8553813905    -2.1509985031     2.0443010385
 F      0.3028845022    -2.8451713443     1.8124384604
 H      0.5142414030     1.4379710014     0.3744786250
 F      0.4442218884     1.2083204044     1.2594909814
 H      1.2972455556    -0.0044521784     1.9873384648
 F      1.7287506354    -0.7581771346     2.2816020482
 H     -1.8745054094    -1.5076768575    -1.0036373339
 F     -2.5556362277    -0.9331697018    -1.2201814089
 H     -2.0623533470     0.4188702671    -2.0506210897
 F     -1.6506448074     1.1296843572    -2.4582096171
          14
Energy: -53.87439547536923 Kcal/mole
 H     -0.0389588136     1.5273710066    -1.7385873289
 F      0.7253622059     1.6336451332    -1.2432004205
 H     -0.5067904383    -2.7856700849     0.1917166404
 F     -0.8658937440    -2.7243549530    -0.6498142684
 H      0.7536751811    -2.1059852113     1.8842392387
 F      0.1033140501    -2.7350002733     1.7350432230
 H      0.7245729733     1.5827653309     0.4182433943
 F      0.6635032513     1.3574880356     1.3050407947
 H      1.4718092032    -0.0089901446     1.8447726765
 F      1.7881323990    -0.8555523810     2.0002108180
 H     -1.9923601154    -1.5709858121    -1.0514324358
 F     -2.5318141761    -0.8509394036    -1.2286652939
 H     -1.9234267116     0.4615258637    -2.0716705056
 F     -1.4562354643     1.1492728796    -2.4584849062
          14
Energy: -53.85956243668605 Kcal/mole
 H      0.3189035799     1.6278069620    -1.9213839819
 F      0.8383502299     2.1715557170    -1.3965969115
 H     -1.1740809866    -2.7470678303     0.6600822221
 F     -1.5889384917    -2.7776739276    -0.1571359356
 H      0.3943048724    -1.9412991139     2.1017757654
 F     -0.3821872101    -2.4290731662     2.0967240664
 H      0.9479016454     1.7824478995     0.2511041143
 F      0.9230225145     1.4840689404     1.1178451516
 H      1.4167084500     0.0230430784     1.6460597033
 F      1.6391395334    -0.8322455632     1.8907937481
 H     -2.0715605397    -1.3371744143    -0.7245265722
 F     -2.2538582933    -0.4859872290    -1.0128612815
 H     -1.3132626903     0.1862003430    -2.1732839899
 F     -0.6603798512     0.5583674947    -2.6987595932
          14
Energy: -53.92971096443004 Kcal/mole
 H      0.4585143016     1.2907470921    -1.9517881020
 F      1.0474906783     1.7782676249    -1.4455079841
 H     -1.2976909211    -2.8472807415     0.7933494044
 F     -1.7093159243    -2.9592547633    -0.0183868059
 H      0.1166610986    -1.9164078121     2.2236129576
 F     -0.6372333722    -2.4384248008     2.2291257148
 H      0.8826250062     1.5875788477     0.1970953756
 F      0.7268441370     1.4126541309     1.0836745679
 H      1.2075113381    -0.0246833148     1.7506760349
 F      1.3795900155    -0.8833974389     2.0224994737
 H     -2.1777857661    -1.5601814740    -0.6933767913
 F     -2.3246401223    -0.7247854718    -1.0418539318
 H     -1.2974612004    -0.1228090826    -2.1847041178
 F     -0.6303340350     0.2464654740    -2.6940828051
          14
Energy: -53.97430775709235 Kcal/mole
 H      0.5101903931     1.0783564556    -1.9289128679
 F      1.0247687332     1.7156863251    -1.5167129537
 H     -1.6469175587    -2.7379495645     0.9350136275
 F     -2.1547203138    -2.8673927992     0.1825046170
 H      0.1857825954    -1.9109850381     1.9755960028
 F     -0.6213806110    -2.3044011945     2.1616075244
 H      1.2191704031     1.6163056654     0.0911150967
 F      1.2680228511     1.4070143805     0.9825743478
 H      1.5137390924    -0.1823008049     1.3059885515
 F      1.5669318901    -1.0896700651     1.4273992257
 H     -2.4988386381    -1.5245264422    -0.7205920367
 F     -2.5746671989    -0.7557944021    -1.2147479635
 H     -1.2480346982    -0.3519109082    -2.1275578840
 F     -0.4506744465    -0.1290024092    -2.5217880580
          14
Energy: -53.81061309124799 Kcal/mole
 H      0.7434462901     1.0230428366    -1.9597086751
 F      1.2116698471     1.6997064068    -1.5550086460
 H     -1.5312800849    -2.7395828887     0.9325023999
 F     -2.0589990785    -2.8335087929     0.1884731072
 H      0.3627910788    -2.0341025484     2.0050233063
 F     -0.4539129271    -2.4092668775     2.1870543280
 H      1.4581129722     1.5465562049     0.0879987077
 F      1.4792625840     1.3441551617     0.9821326527
 H      1.6350218563    -0.2575150951     1.3717598231
 F      1.6658889394    -1.1596533144     1.5332617008
 H     -2.3688939922    -1.4452554104    -0.7419855761
 F     -2.3436677195    -0.6559933627    -1.2081594227
 H     -0.9816715258    -0.4624139024    -2.0691061788
 F     -0.1567641512    -0.3114329461    -2.4400799975
          14
Energy: -53.858816965001566 Kcal/mole
 H      0.5670930083     1.0064695262    -1.9315721721
 F      1.0000602176     1.7181266897    -1.5482022759
 H     -1.6886451146    -2.5601007789     1.1815934893
 F     -2.2502653077    -2.7604613548     0.4849390567
 H      0.0833712889    -1.7585392739     2.2379192942
 F     -0.7419453997    -2.1010163069     2.4439553236
 H      1.3754280971     1.5931913904     0.0458387979
 F      1.5192631991     1.3991981547     0.9304670181
 H      1.5563257875    -0.1767548584     1.4469090174
 F      1.4838659794    -1.0717956958     1.6327596986
 H     -2.4893972506    -1.4772277259    -0.5306387607
 F     -2.4552335802    -0.7420722285    -1.0776929065
 H     -1.1299463794    -0.4100527880    -2.0191057709
 F     -0.3371044665    -0.2701730755    -2.4581096059
          14
Energy: -53.7525873408116 Kcal/mole
 H      0.4568519182     1.0406182241    -1.9432795480
 F      1.0921303095     1.5514864423    -1.5233699991
 H     -1.7904583594    -2.2942731006     1.3069343899
 F     -2.3652938845    -2.3409809042     0.5940027661
 H      0.1496405520    -1.8101575162     2.3138760042
 F     -0.6899897830    -2.0782281111     2.5669531798
 H      1.1983513676     1.4531471480     0.0862761508