          14
Energy: -44.39519362678807 Kcal/mole
 H      0.0395232303     5.5244197227    -1.5686634194
 F     -0.6655730323     5.7137288172    -2.1235420793
 H      1.9581915730     4.5612773994    -1.0941359467
 F      1.2045885750     4.7415066413    -0.6037392279
 H     -2.2664179110     5.9841633868    -2.3333216776
 F     -3.1410732995     6.0219498720    -2.6061570363
 H      3.2542039953     4.8857680423    -3.1611123406
 F      3.3317466326     5.2962663909    -2.3447991377
 H      1.4990318854     3.8539750026    -4.0905808773
 F      2.0312163167     4.5414525471    -4.3822028190
 H     -0.4023907660     3.0336720038    -3.1096468594
 F      0.4481496201     2.8007668902    -3.3610931950
 H     -2.8653279400     4.2344609634    -2.8860219500
 F     -2.3715108101     3.4752788034    -3.0298137795
          14
Energy: -44.14839888928276 Kcal/mole
 H      3.8232405351     2.2972989316    -0.8580290421
 F      3.1871888561     2.6418461652    -1.4216019881
 H      5.1111094903     0.5422273842    -0.0481114873
 F      5.3021226660     1.4380151048    -0.0924660390
 H      2.4732744121     3.8146835179    -3.0420532165
 F      1.8575941041     4.4572570247    -3.2632455459
 H      3.9376273957    -1.1436771410    -0.8332902029
 F      4.7244836388    -1.0254053294    -0.3774853858
 H      2.1896168568    -0.4483695039    -1.6489155419
 F      2.7361530800    -1.1051622270    -1.9817976166
 H      0.5042235110     2.1374425103    -1.0544139952
 F      0.6453592103     1.2326889886    -1.1033095916
 H      0.6354188350     4.0800101554    -2.0731969179
 F      0.1569596509     3.8276084293    -1.3327516614
          14
Energy: -41.58033950715952 Kcal/mole
 H      1.3267216839     6.7410498442    -3.4524674750
 F      0.4894606813     6.4899182722    -3.7296243744
 H      3.7348797345     6.9270666787    -3.5196232552
 F      2.8823581649     7.0039869587    -3.1907171228
 H      0.4339964072     4.6418602486    -7.3080582022
 F      1.2260100506     4.2258691618    -7.1066759675
 H      4.9617581777     5.0260735980    -3.6634213261
 F      5.1126151013     5.9274120701    -3.7390529818
 H     -0.7202796588     6.6983717597    -5.6908813798
 F     -1.0683034941     6.2187754414    -6.3907069162
 H      3.9026347854     3.2365677247    -4.1338021395
 F      4.5501491508     3.4375571427    -3.5163740867
 H      2.5152894014     3.5340495894    -5.8668654031
 F      3.2763607543     3.0528746740    -5.6932851721
          14
Energy: -32.887904829965976 Kcal/mole
 H      2.8217885621     6.6106060361    -5.9007057969
 F      3.4106288347     6.0231846615    -6.2868304684
 H     -0.5820602150     6.1610757733    -1.0080154763
 F     -0.3417113585     6.7653462805    -1.6545281067
 H      5.6783861191     5.4001724716    -4.3535550901
 F      5.3070194411     5.9288841199    -3.7028325813
 H     -1.0074840858     3.6270441335    -1.1428290163
 F     -1.3503522731     4.4672989887    -1.0112912482
 H      5.0129274259     5.4292677907    -6.3356161877
 F      5.7918505261     4.9926777879    -6.1269131129
 H      1.0437505619     6.9672993517    -3.3054411548
 F      1.6309870088     6.6627683625    -3.9405027519
 H      4.9016360700     4.5355889645    -2.9550241239
 F      4.6850729231     3.6487653886    -2.8682292580
          14
Energy: -46.13818723437815 Kcal/mole
 H     -3.7080036530     4.9931608189     1.2800149266
 F     -3.2791101895     5.6784747323     0.8472514380
 H     -2.5689366836     1.8295393361     2.3291561095
 F     -3.3825342930     1.8397398562     2.7520554821
 H      0.3039801305     4.2701512806    -2.0799169477
 F      1.1151742790     3.8698681530    -1.9294959678
 H     -0.7308662879     2.1746447551     0.6500103204
 F     -1.5864113573     1.8614315015     0.7540732440
 H     -1.8644077729     5.4671276476    -0.7635520684
 F     -1.0478454895     5.4758976028    -1.1807308374
 H     -4.3037973020     3.1742916024     2.5420615942
 F     -4.7175465759     3.9762671255     2.3791634705
 H      1.0342791976     3.1488707253    -0.4589424644
 F      0.7308616731     2.8536103152     0.3544750766
          14
Energy: -43.28174784247419 Kcal/mole
 H     -0.7512755700     5.7577144924     0.3102632056
 F     -0.5473935721     5.0739112727    -0.2657005845
 H     -2.4246190900     5.8136886198     3.3067545656
 F     -3.2736433617     5.9193002472     2.9767652170
 H      1.9214071526     3.1685858470     1.3764261342
 F      2.1315861062     3.0261162491     2.2575709697
 H     -0.1877668855     4.2094663315     4.4559312807
 F     -0.4311538896     5.0156933028     4.0930954542
 H      0.9311749837     4.0759061642    -0.2500142712
 F      1.6921105460     3.5674012465    -0.1926660485
 H     -2.5759085254     6.7227943644     1.1342633709
 F     -1.6931990747     6.9602025203     1.0611169889
 H      1.1247116686     2.6228913776     3.5858420638
 F      0.4807020997     2.3627659340     4.1845702398
          14
Energy: -43.98654985677459 Kcal/mole
 H     -3.3824969337     0.9411191505     3.9822155182
 F     -3.3279267121     0.0258441002     3.9957311849
 H     -0.0019980685     3.6359749489     4.1564387837
 F     -0.7256602488     3.8130751461     3.6218009914
 H     -0.6712140602    -2.0634110008     3.6844723563
 F     -0.1138787302    -1.7035777071     4.3175492321
 H      0.9048375229     2.2189482806     5.7383810354
 F      1.3837163315     2.5711215981     5.0401417919
 H     -2.6647205415    -1.1215190185     3.0034710334
 F     -2.2429192567    -1.7979975434     2.5503160032
 H     -2.2873901623     3.2320541232     4.0032420452
 F     -3.0684415968     2.7814620437     4.1700186458
 H      0.3181245577     0.0497194681     5.7434429338
 F      0.2033189249     0.7157256445     6.3632368024
          14
Energy: -48.37822543983884 Kcal/mole
 H     -2.7051903197     3.2222563872     2.5702829085
 F     -3.0981354547     2.9050724588     3.3357092449
 H      1.7959372351     4.4510193411     2.6543409515
 F      1.0007959607     4.4525689026     2.1975730097
 H     -0.9395439861     0.9221259144     5.2216820128
 F     -0.4439507884     1.2041454656     5.9398333584
 H      2.5691237572     3.6084176053     4.9614419599
 F      2.9340176802     3.7479600960     4.1318219756
 H     -2.4754525493     1.5321210924     3.7156909944
 F     -2.0605242024     0.7944062424     4.0685369483
 H     -0.7386760646     4.2239664873     1.8116048325
 F     -1.5951415642     3.9581278343     1.6200698263
 H      1.0502140933     2.2007858816     6.3517793714
 F      1.7393595765     2.8041707546     6.3953017564
          14
Energy: -44.631380086372076 Kcal/mole
 H     -1.9918065499     2.1085069700     3.2275455755
 F     -2.6920799341     1.9734403002     3.8039683215
 H      2.2444582578     2.8958166776     3.9680741670
 F      2.1786587361     2.3130151426     3.2631615527
 H     -1.4191833611     3.4783729439     7.2273057480
 F     -0.6228716180     3.9294427266     7.2848614494
 H      1.5660261592     5.3709822862     4.5591923297
 F      2.1249206317     4.7512594463     4.1791008009
 H     -3.1445030216     2.5201462460     5.5467987663
 F     -2.8588766562     2.6584019873     6.4071428425
 H      0.5950221045     2.0144170675     2.8452465802
 F     -0.2548776805     2.2656129305     2.6097471243
 H      0.1994210272     5.2939292417     6.6589534295
 F      0.5921695005     5.8925089113     6.0859438171
          14
Energy: -48.02459961153865 Kcal/mole
 H      3.8323255063     0.2443666759     2.7860387429
 F      4.2693736261    -0.0599934945     2.0395517520
 H      1.4377417112     3.7422037301     2.1497960393
 F      1.4703622221     3.4419172485     3.0156210396
 H      1.0578489343     0.2941266568     0.5244384732
 F      0.5525775914     0.9953522665     0.2180522554
 H      0.1375690795     4.0549096307     0.2256090041
 F      0.8288282087     4.4694633676     0.6628675266
 H      2.9577315930    -0.8144865267     1.1948540015
 F      2.2044159380    -1.0164315226     0.7125442022
 H      2.4600428554     1.8816629213     3.5236680515
 F      2.8741319305     1.0974193282     3.7568658744
 H     -0.7628489702     2.0821899776    -0.2244814151
 F     -1.2401187026     2.8556876714    -0.1028100539
          14
Energy: -47.06941322146396 Kcal/mole
 H      3.2879324192     6.5770279004     1.5434351345
 F      2.5846835844     6.3335709488     1.0076564591
 H      3.9730010461     3.3502607678    -1.7158387281
 F      4.5495140371     3.9500977864    -1.3301998784
 H      0.5640231643     3.1224963226    -0.2441665925
 F      0.5862164424     2.4682522737    -0.8863201434
 H      2.1055424562     2.0321980931    -1.3110387330
 F      2.9195659941     2.1014842905    -1.7275169469
 H      1.0430826297     5.2655711298     0.9409251502
 F      0.7027626302     4.4162757822     1.0023149733
 H      5.1714993946     4.4677626031     0.1023729124
 F      5.5465327450     4.4078808258     0.9370304223
 H      5.1169560258     5.7083614696     2.0852133267
 F      4.5925661293     6.3676393130     2.4475073532
          14
Energy: -49.43461594345206 Kcal/mole
 H      2.1081335438    -1.0130221025     4.6996215710
 F      1.3434023006    -1.3792885846     5.0487977296
 H      3.1673537974    -3.0907209277     0.0866909500
 F      3.7294605018    -2.4560459289     0.4361372244
 H      0.9190208242    -3.7208111891    -0.4229984273
 F      1.7167360200    -4.0313318915    -0.7518089499
 H      0.2543387728    -2.3132055806     3.9507303151
 F     -0.0465106053    -2.6646513485     3.1589825497
 H     -0.2728060948    -2.7106224377     1.3815858389
 F     -0.2107144195    -2.6877286770     0.4669769063
 H      3.5248969456    -0.6459165325     0.8175049843
 F      3.3727939481     0.1424738688     1.2604431892
 H      3.2930606146     0.1001581570     2.8249484410
 F      3.2754908017    -0.1528059159     3.7061915854
          14
Energy: -45.63527632856632 Kcal/mole
 H     -0.3323165903     2.1683530106     0.1910653599
 F     -1.1704748340     2.1455301874     0.5623588790
 H      3.1570290549    -1.8119541065    -1.4465588647
 F      3.3681318398    -1.9637465758    -0.5671933773
 H      0.4146068440    -2.0320155326    -1.9998545258
 F      1.3059427407    -1.9596307347    -2.2027578533
 H     -1.4135352500     0.6062253889     0.5102859553
 F     -1.6473061007    -0.2216227625     0.1926263458
 H     -1.2002188666    -1.6568155061    -0.6025891601
 F     -1.0160957592    -2.2770038839    -1.2524768869
 H      3.0491512798    -0.7416392653     0.6286561066
 F      2.9188469429     0.0417705518     1.0871087632
 H      1.9967839301     1.4245689481     0.6106558390
 F      1.4753116511     2.0621787052     0.2076552685
          14
Energy: -47.10908844692649 Kcal/mole
 H     -0.0974756754     0.5372988290    -1.8515303712
 F     -0.9709467837     0.3563672697    -2.0641356246
 H      4.9659684548     0.4958243458    -4.4567557028
 F      5.2873622870     0.2869432681    -3.6237108661
 H      2.9346340172     1.9308388883    -5.2232963902
 F      3.6967074024     1.4286498794    -5.3123994479
 H     -1.3419299348     1.7569906811    -3.2163904404
 F     -1.1608925394     2.6233836668    -3.4561354214
 H      0.5264114291     2.6256711441    -4.0901138840
 F      1.3188793820     2.2187144265    -4.3075300139
 H      4.6236903696     0.5474398800    -2.0499524188
 F      4.0343820651     0.6793429747    -1.3598753971
 H      2.4183507550     0.5814501915    -1.3628242496
 F      1.5034149937     0.6388320519    -1.3407137345
          14
Energy: -47.84939319201898 Kcal/mole
 H      4.3026037464    -4.0414479356     0.7908610257
 F      3.4190097643    -3.8090668222     0.8692810041
 H      5.4216826356    -2.4186729036    -4.9842407640
 F      5.9965415175    -2.6753997781    -4.3175192495
 H      3.4981404096    -1.8361998130    -5.5434049694
 F      4.2825395766    -1.7790132120    -6.0149308324
 H      2.7390310159    -3.3191173467    -0.7793136138
 F      2.3129357740    -3.2105542138    -1.5840159755
 H      2.4869055768    -2.6247808046    -3.2997050356
 F      2.5767348796    -2.4679198201    -4.1987124482
 H      5.5669789431    -3.6310480046    -2.7384715793
 F      5.2917046497    -3.8539002025    -1.8926288272
 H      5.8318199069    -4.7336099044    -0.2358253689
 F      5.8739021379    -4.6577241715     0.6770598602
          14
Energy: -47.26989797374391 Kcal/mole
 H     -0.0859403611     0.1858864804    -0.6071715810
 F     -0.1184708806    -0.7205932062    -0.4725411860
 H      5.0148848213    -0.9237927420     0.5571005936
 F      4.7475861871    -0.3742672270     1.2408126299
 H      4.6345772783    -2.8262321411    -0.5321624855
 F      5.4110698056    -2.4923513999    -0.1765334572
 H      1.4204262338    -1.0994522279    -0.1958468375
 F      2.2862178200    -1.3725436054    -0.0665602222
 H      2.6340465241    -2.9450271460    -0.8294373495
 F      3.2417629584    -3.5103786908    -1.2192416161
 H      3.5453991946     0.9676020567     0.9351085812
 F      2.9999197267     1.6922705236     0.8002132029
 H      1.4265212922     2.2149875975     0.0411644617
 F      0.5571588095     1.9975032270    -0.1532537017
          14
Energy: -44.56770807106015 Kcal/mole
 H      3.5892974300     2.8297668935    -4.6905801949
 F      4.2356875323     3.3782000861    -4.3408805110
 H      1.7305003929    -0.4247964236    -1.4070047936
 F      1.5752152785    -0.4262294055    -2.3107600037
 H      3.0955404156     0.2362330996    -0.1895353209
 F      2.3316611156    -0.2642672406    -0.1066086998
 H      4.9105358988     2.3619776418    -3.4001412928
 F      5.5709362619     1.9705757224    -2.8985788362
 H      4.8252695708     1.4518528250    -1.2009411209
 F      4.3575807558     1.3953338668    -0.4141998803
 H      0.3952083470    -0.1024414714    -3.6263106328
 F      0.1585622018     0.3204343626    -4.4048115198
 H      1.5386398769     1.1886891937    -4.7680529186
 F      2.2419095347     1.7763438361    -4.7990820936
          14
Energy: -47.470285400403824 Kcal/mole
 H      2.3979943957     2.9388308333    -2.0419469048
 F      3.0346716718     2.9227380649    -1.3821953842
 H      1.8539429470     0.8890812044     1.2430103560
 F      1.5104181640     0.6976864210     0.4146096315
 H      2.7817944691     2.0883730594     2.8288060664
 F      1.9812251350     1.6508355224     2.7364012781
 H      4.3642399766     2.3129210485    -0.7512443436
 F      5.0851798842     2.0607109275    -0.2437754239
 H      4.5438231481     2.4183098622     1.5424452317
 F      4.3705191058     2.7113699994     2.3938972062
 H     -0.1785748864     1.4082645845    -0.3101334681
 F     -0.5319230903     1.9365461996    -0.9711573572
 H      0.3095443854     2.8774323541    -2.1366754262
 F      0.9079113866     3.0975986298    -2.7957450303
          14
Energy: -46.75490204224653 Kcal/mole
 H      5.1208046135     2.8143666388     0.9104635183
 F      5.5783579381     2.0477811096     1.1199404420
 H      1.2435227515     1.8899022947    -2.3457979389
 F      1.5152727246     2.6005725314    -1.8339495563
 H      2.0601864520    -0.4499602011    -2.6644156814
 F      1.3768686233     0.1217381055    -2.8815027404
 H      5.1182521594     0.8364976590    -0.3704897924
 F      4.4856085718     0.5539465873    -0.9711693933
 H      3.8026675916    -0.7658699327    -1.7992384570
 F      3.2362180791    -1.4078519995    -2.1276938966
 H      1.6917677572     2.7040045785    -0.1132684326
 F      2.0662180648     2.3762044861     0.6569413223
 H      3.1464102751     3.5219584340     0.7206966866
 F      3.9277334068     4.0014333746     0.6977414034
          14
Energy: -50.36437990174514 Kcal/mole
 H      3.6098620553    -1.6079261705    -2.2100112571
 F      2.9904697265    -0.9628704163    -2.4128540953
 H      0.6316895664    -3.6651880046    -1.0824391016
 F      1.4460413285    -3.9629053365    -0.7839686710
 H     -0.9847424015    -2.4154967719    -1.9507663670
 F     -0.7114915418    -3.2833728160    -1.8366868340
 H      1.7333072718    -0.1099881700    -1.7275218587
 F      0.9731486568     0.1590922054    -1.2908942925
 H     -0.6392391677    -0.2487800226    -2.1625451921
 F     -1.2717619901    -0.8817751434    -2.3628476039
 H      2.9815437362    -3.7278785187     0.0074237611
 F      3.8347633624    -3.6966313801     0.3419815078
 H      4.6841314444    -3.0840024965    -0.9777214813
 F      4.8251240683    -2.6057702897    -1.7473343947
          14
Energy: -50.90875419826541 Kcal/mole
 H      0.3754459848    -2.7365078227     1.6705716296
 F      1.0513950776    -2.1172165523     1.6491206057
 H     -0.2638386492    -6.3590216641    -1.6108823462
 F     -0.7252991118    -6.7628627816    -0.9290791538
 H      1.1463947288    -5.0162623723    -2.5451341160
 F      0.3784956319    -5.4596533085    -2.7788528673
 H      1.6618343080    -1.6497277446     0.1419621828
 F      1.7288202797    -1.8640745574    -0.7471144862
 H      2.1713919990    -3.3551827018    -1.2984974204
 F      2.3606535597    -4.1451817136    -1.7239038415
 H     -0.3181715474    -6.6400729726     0.6635433701
 F     -0.0237157595    -6.3015114289     1.4632688668
 H     -0.6743913933    -4.7008807790     1.4993233170
 F     -0.8546767128    -3.8235081693     1.3028455643
          14
Energy: -49.991288506610815 Kcal/mole
 H      0.4588830341    -1.7968171530     0.5665631758
 F      0.1132165062    -1.0222420261     0.2180850210
 H      5.1161755501    -1.6452434670     0.8209788785
 F      5.2300148853    -1.9684827508     1.6715351501
 H      4.1317202911    -1.4891309288    -1.4201558392
 F      4.8860432812    -1.3410689865    -0.9201923528
 H      0.5500241664     0.1899408262    -1.2083168333
 F      0.8688184992     0.5270895845    -1.9992592384
 H      2.1326679894    -0.5476415354    -2.1413809689
 F      2.6162524302    -1.3151788731    -2.0075096728
 H      3.7973909895    -1.8265928992     2.4681565660
 F      2.9205160884    -1.6528115473     2.6725567854
 H      1.9725171478    -2.6355620221     1.8229567052
 F      1.3753299134    -2.9763841795     1.2162470019
          14
Energy: -49.85643078680654 Kcal/mole
 H      0.1501105480    -2.4730408485    -0.4467219141
 F      0.6971557902    -2.4604454524    -1.1825696287
 H      0.5687835566    -0.0654395782     4.4459975585
 F     -0.2831174656     0.0013402937     4.7787047828
 H      2.3300727933    -0.3163836582     2.8562136236
 F      1.8976590696    -0.3166641665     3.6648589679
 H      2.0389199661    -1.4200837852    -1.1926183319
 F      2.6971269223    -0.7906843714    -1.2998982492
 H      3.3450629785    -0.4861107952     0.3658464168
 F      3.2201243970    -0.5565597541     1.2715595585
 H     -1.3321899126    -0.8766511984     3.7466311886
 F     -1.8115091229    -1.4371674781     3.2016875266
 H     -1.2261323609    -2.1583816468     1.7865006931
 F     -0.9214930465    -2.5602883083     1.0206319553
          14
Energy: -50.26768145928871 Kcal/mole
 H     -0.5290024190    -0.3518808243     2.9015057461
 F     -0.4909538844     0.0129822666     2.0610795245
 H      2.7161368181    -3.8968185331     2.3725488618
 F      2.9500632790    -3.6817189482     3.2327230183
 H      2.0079257100    -4.3328674284     0.0773377392
 F      2.4242398769    -4.5994917129     0.8496608615
 H     -0.3268120555    -0.8030924764     0.5278980517
 F     -0.0077290913    -1.3034827974    -0.1711617374
 H      1.2650962105    -2.4166372252    -1.0711282160
 F      1.8138611301    -3.1386869459    -1.2067389227
 H      1.8500217169    -3.2997214902     4.3657003579
 F      1.2022904493    -3.0627573262     4.9700025919
 H      0.0496929710    -2.0197437218     4.5343637601
 F     -0.5521897868    -1.3771150086     4.2781324528
          14
Energy: -51.1113386093412 Kcal/mole
 H     -3.4921534900    -3.4656292233     3.0233672278
 F     -2.9129395888    -3.6066961858     2.3265886628
 H     -0.1475640041    -3.1356017076     3.3831875279
 F     -0.3495512244    -2.7135278924     4.1718216999
 H      0.1253558871    -3.3303480045     1.2132588712
 F      0.2728144025    -3.8791361034     1.9329647895
 H     -2.9555151145    -2.6952687942     0.9400753597
 F     -2.7707991502    -2.1682053953     0.2127699314
 H     -1.1687567290    -2.3706130231    -0.1848387486
 F     -0.2825315104    -2.6000514691    -0.1314359279
 H     -1.2376581614    -3.2928723025     5.3828048788
 F     -1.7736281541    -3.4622081222     6.1073395896
 H     -3.3089288051    -3.3826695180     5.3774838322
 F     -3.8801468745    -3.1393265393     4.7026630324
          14
Energy: -49.11478509941624 Kcal/mole
 H     -2.4383138391    -5.1619744254     3.7824851533
 F     -1.5296780229    -5.1986673700     3.9004833788
 H     -3.1421144985    -0.0112564893     5.7023046748
 F     -3.6842026849    -0.4677178408     6.2842603713
 H     -1.2351566095     0.1736691495     4.2849319073
 F     -2.0882685178     0.4679702068     4.4476462570
 H     -0.7338560612    -3.5912792096     3.3809536300
 F     -0.2067437355    -2.8815960065     3.1372502300
 H      0.6405861996    -1.2971145344     3.7379330665
 F      0.5564457514    -0.4444571137     4.0647123620
 H     -3.9616489566    -1.9547251633     5.9082230490
 F     -4.0911559294    -2.7898051666     5.5521916852
 H     -4.0618675312    -3.9439052707     4.3277216673
 F     -3.9494214585    -4.6709920998     3.7803738585
          14
Energy: -48.944975616644626 Kcal/mole
 H      1.2022864711    -1.0220158335     2.5905909429
 F      0.9202377515    -1.0933996490     1.7209692604
 H     -0.8488855072     3.0925258688     3.7830596304
 F      0.0057640767     2.8552370436     4.0157764158
 H     -2.3844754790     2.3058299565     2.5984366181
 F     -2.3993465013     3.0217629761     3.1712435351
 H      0.8430076252     0.5374470357     0.9090546226
 F      0.5265966302     1.2631273087     0.4462790575
 H     -1.1650511667     1.2957917482     0.8575459652
 F     -1.9746408939     1.1326691412     1.2560989589
 H      0.7783858822     1.8220839139     5.1251592216
 F      0.9825271959     1.0271314203     5.5341407089
 H      1.8206314961    -0.4186364432     4.9052385550
 F      2.0125077816    -1.0350299431     4.2539847302
          14
Energy: -48.74143842479866 Kcal/mole
 H      1.3805237402    -2.4097292526    -0.1035446000
 F      1.3066388554    -1.8370290471    -0.8158959869
 H     -0.9705333544     0.7377021647     3.6476321033
 F     -0.1581993673     0.3141988014     3.6882202129
 H     -2.4225007266     1.5644199329     2.2912824727
 F     -2.3084675809     1.4128558151     3.1884523339
 H     -0.0867140844    -1.0334562576    -0.6270008737
 F     -0.8204823508    -0.5004862054    -0.4912951083
 H     -2.2480673067     0.6492301378    -0.0275136289
 F     -2.6038423500     1.3246890750     0.4804906455
 H      0.2687071416    -1.1702204676     3.4417619386
 F      0.3261600093    -2.0581770721     3.2201288262
 H      0.9366988831    -3.0891119197     1.9731131908
 F      1.2833074240    -3.6214218260     1.3117527120
          14
Energy: -48.61979690411822 Kcal/mole
 H      2.4479382595     0.4974330544     0.2996436914
 F      1.8266491767     0.8900119414    -0.2487819582
 H     -0.3734084970     1.1600036875     3.4129350061
 F      0.1509905392     1.9097183012     3.3511074336
 H     -1.1889274622    -0.6767558805     2.6209669029
 F     -1.0764636868    -0.3536993824     3.4717755760
 H      0.3193093666     1.2955579503     0.0213588274
 F     -0.5197862998     1.3136765594     0.3907897122
 H     -1.4478363693    -0.1731354169     0.7771278442
 F     -1.7199726954    -1.0054959463     1.0491696958
 H      1.9267548933     1.7227568355     3.8342053086
 F      2.8183652108     1.5090447880     3.8184826358
 H      3.2857325012     0.5679983356     2.5284307048
 F      3.5509347684     0.2813955453     1.6987225645
          14
Energy: -51.13191019440298 Kcal/mole
 H      0.0867381311    -1.8133331356     3.7204325481
 F     -0.4567485718    -1.7863724644     2.9823374824
 H     -0.4813471491     2.3568688122     5.5744598981
 F      0.3173053607     1.9458805378     5.7592078534
 H     -2.4548356701     2.5621350547     4.4524582892
 F     -1.9921098483     2.8099192548     5.2043737126
 H     -1.8439767591    -0.9500139100     2.8535550377
 F     -2.6222283059    -0.4973426347     2.6794796336
 H     -2.9818441867     1.2672053422     2.7064204781
 F     -2.9565686826     2.1477318752     2.9612207404
 H      1.0269948854     0.5316600341     6.7577560131
 F      1.3557130485    -0.2831090060     7.0204055527
 H      0.9721441146    -1.3801362902     5.8362474855
 F      0.6888759674    -2.0511446805     5.2791156367
          14
Energy: -50.82541993652086 Kcal/mole
 H      1.9831876579    -2.3088470481     4.8674557830
 F      1.1009741398    -2.2913023811     4.6178951827
 H      3.7076382718     1.3755044024     6.5858120220
 F      4.5560670647     1.5132740479     6.2663169388
 H      1.5003019461     1.1928153509     6.3912737442
 F      2.1877744006     1.0764700190     6.9868695702
 H     -0.2882890304    -1.4678857975     4.2494864009
 F     -0.9161744604    -0.8020154756     4.1923409607
 H     -0.0570464056     0.6293969113     4.5426599503
 F      0.5870314039     1.2272617279     4.8045958897
 H      5.0247967790     0.4626397522     5.1595849850
 F      5.3526945638    -0.1958909199     4.6121277751
 H      4.3575261407    -1.6426780346     5.1170955787
 F      3.6949054741    -2.2541435033     5.2842267627
          14
Energy: -51.85235691919853 Kcal/mole
 H      0.8924700553     0.0618688687     3.1117162996
 F      0.4315915075    -0.3444489941     3.7924407362
 H      3.4943640961     4.8369811907     5.6505073526
 F      3.2886849936     4.8270234950     4.7569269415
 H      3.2192908241     3.6423100487     7.2860413549
 F      3.8231457638     4.3239575605     7.1783153997
 H      0.3079474194     0.8064182166     4.9903318530
 F      0.4367431379     1.3726237070     5.7000585648
 H      1.5990716304     1.9076076554     6.6999604840
 F      2.1386986598     2.3860822104     7.2663117614
 H      3.5263114349     3.5071050773     3.7026343169
 F      3.6479584387     2.8378130739     3.0877040601
 H      2.5928474436     1.6687081738     2.4965763487
 F      1.9495419752     1.0654141600     2.2454122447
          14
Energy: -51.16337404680411 Kcal/mole
 H      2.6189199880     0.3407770011     2.3057224669
 F      1.8197118313     0.0594062720     2.6564158301
 H      1.0080960787     4.4483434974     2.6671296269
 F      0.8497702099     4.0213852969     1.8711845194
 H      1.3212187075     4.6782613087     4.8645957690
 F      1.5199943324     5.2443492282     4.1711105721
 H      1.3710921558     0.4762383205     4.1858035456
 F      1.2814893876     0.9915781117     4.9389869519
 H      1.0774312831     2.5475988617     5.4474493274
 F      0.9278204219     3.3808133743     5.7999534638
 H      1.9684512657     3.4000654075     0.9318240512
 F      2.7586833163     3.1440200598     0.5434130754
 H      3.5930781826     1.8003877445     1.1334740793
 F      3.8073681424     1.0046194359     1.5356203364
          14
Energy: -51.986271527930356 Kcal/mole
 H      2.0050889878     0.8631610335     3.5675043647
 F      1.2385900513     0.8138683548     4.0684420975
 H     -0.0644078993     5.1266689473     2.3900892265
 F      0.6316961331     5.2004006252     1.7977280059
 H     -0.9946132899     4.8490179231     4.6382878558
 F     -1.1239373852     4.7957129008     3.7320192130
 H      0.9807415945     1.6859515061     5.5825245496
 F      0.8322340977     2.1917814879     6.3328381860
 H      0.0471887289     3.7060530396     6.3752761852
 F     -0.3849622457     4.4905645741     6.1786135622
 H      1.9311789687     4.3749505588     2.2982505032
 F      2.7315962685     3.9497126671     2.4375124207
 H      3.1028510393     2.2260515873     2.4498438593
 F      3.2016848518     1.3215650705     2.5639710618
          14
Energy: -51.463004850336134 Kcal/mole
 H      2.2193018911     5.6788348202     5.7505354953
 F      1.9827673124     6.1710226260     6.4872115143
 H      0.2262257003     6.8269730300     1.5584804149
 F      1.0431149227     7.0319004027     1.1957328853
 H     -1.3445369854     6.8162473133     3.1981348591
 F     -1.0018073970     6.2984126163     2.5233959052
 H      0.5389682681     6.9713854055     6.8219803932
 F     -0.3469796488     7.1985555590     6.8881544814
 H     -1.3009027529     7.1203965384     5.6609917770
 F     -1.8287867093     7.0890438176     4.9118292209
 H      2.4675875696     6.5031311930     1.8537257955
 F      3.1744829040     6.2485526324     2.3794422045
 H      2.8715976483     5.2875207472     3.6961155241
 F      2.6693947435     4.7786482943     4.4316777662
          14
Energy: -52.01562927584986 Kcal/mole
 H     -1.3092749798     2.0754657137     5.7006056449
 F     -1.6349546282     2.6805729127     6.3077852265
 H      0.7903175780     4.8550144024     3.1612503488
 F      1.4892416283     4.3180641654     3.4143878902
 H     -0.9693007729     6.0661498827     3.2100013264
 F     -0.6124090791     5.4721086513     2.6094746124
 H     -2.3538856260     4.2184419343     6.0690790608
 F     -2.6134462617     5.0537908936     5.7939256624
 H     -1.9528641045     6.5727865163     4.9463758783
 F     -1.3775772340     7.0489111268     4.4141734997
 H      1.6234644795     2.6650801945     3.2294612117
 F      1.5780474269     1.7536422282     3.3195007861
 H      0.2450102853     1.3051871517     4.0997345900
 F     -0.5180431460     1.0596134309     4.5450794100
          14
Energy: -51.62925331234142 Kcal/mole
 H     -2.8699589333     2.4945712995     5.0105296613
 F     -3.2672810477     2.3202614966     4.2026681447
 H      1.5991660888     4.8312985048     2.7014364338
 F      1.6983232171     3.9879487221     3.0475838128
 H      0.1779562266     6.3458078500     2.4790860334
 F      1.0643388075     6.3471094134     2.2441110852
 H     -2.3279776430     3.0564549218     3.1208597458