          14
Energy: -54.11928001301044 Kcal/mole
 H      0.8908170651     0.8782164554    -2.0724567621
 F      1.2269608451     1.6809386319    -1.7834351945
 H     -1.6471664109    -1.9918458918     1.4718400051
 F     -1.9694359405    -2.4594281735     0.7518412827
 H     -0.0931612534    -0.7410687559     2.4730277422
 F     -0.9562384188    -1.0174400139     2.6130482205
 H      1.4553769088     1.9579939300    -0.1661883109
 F      1.5294418865     2.0022107345     0.7467455604
 H      1.5007678956     0.5954682384     1.6067972896
 F      1.4056161126    -0.2239553933     2.0072720704
 H     -2.1218895015    -1.6254984106    -0.6607040866
 F     -2.1045214608    -1.0964232486    -1.4094809720
 H     -0.6374965988    -0.7997961359    -2.1036344428
 F      0.2131588384    -0.6030917778    -2.3839587596
          14
Energy: -54.11883851085656 Kcal/mole
 H      0.8877987335     0.8796091851    -2.0727941198
 F      1.2271209606     1.6808647508    -1.7834172985
 H     -1.6502612300    -1.9934774148     1.4742715089
 F     -1.9692717675    -2.4593416250     0.7517122971
 H     -0.0928079380    -0.7424749481     2.4724392320
 F     -0.9562571613    -1.0173654187     2.6130794396
 H      1.4575282964     1.9620359874    -0.1665464555
 F      1.5293277604     2.0019963127     0.7467645591
 H      1.5003332680     0.5937736114     1.6032471894
 F      1.4056391686    -0.2238654972     2.0074603950
 H     -2.1220480919    -1.6230529956    -0.6589861675
 F     -2.1045130480    -1.0965529722    -1.4095721036
 H     -0.6361944584    -0.8027092781    -2.1017529786
 F      0.2130897629    -0.6029372423    -2.3840585670
          14
Energy: -54.11882808058576 Kcal/mole
 H      0.8922800637     0.8771900564    -2.0712993317
 F      1.2268832364     1.6809930800    -1.7834965935
 H     -1.6482022934    -1.9911749975     1.4718668561
 F     -1.9693809893    -2.4594637629     0.7518398584
 H     -0.0936282297    -0.7400029358     2.4722603434
 F     -0.9562136468    -1.0174965532     2.6130889293
 H      1.4530710728     1.9587024723    -0.1660321891
 F      1.5295642058     2.0021731480     0.7467372785
 H      1.5047050048     0.5936576152     1.6040624886
 F      1.4054072581    -0.2238593439     2.0074171452
 H     -2.1216320423    -1.6256371667    -0.6607962240
 F     -2.1045351184    -1.0964158879    -1.4094760843
 H     -0.6367894898    -0.8025498457    -2.1034362336
 F      0.2131213279    -0.6029456998    -2.3839692742
          14
Energy: -54.11851240160891 Kcal/mole
 H      0.8906745444     0.8777128710    -2.0708873746
 F      1.2269684055     1.6809653459    -1.7835184469
 H     -1.6511493943    -1.9971022252     1.4769851861
 F     -1.9692246524    -2.4591493371     0.7515683428
 H     -0.0938260330    -0.7408641606     2.4693856126
 F     -0.9562031538    -1.0174508672     2.6132414271
 H      1.4528626631     1.9615760292    -0.1661467811
 F      1.5295752614     2.0020207125     0.7467433573
 H      1.5012733862     0.5935330190     1.6029820787
 F      1.4055892975    -0.2238527344     2.0074744585
 H     -2.1203479243    -1.6233753429    -0.6591746851
 F     -2.1046032379    -1.0965358724    -1.4095621032
 H     -0.6367560360    -0.8007310442    -2.1020505864
 F      0.2131195533    -0.6030421831    -2.3840427796
          14
Energy: -54.11847451291143 Kcal/mole
 H      0.8912833008     0.8777761526    -2.0717745286
 F      1.2269361124     1.6809619889    -1.7834713854
 H     -1.6480934664    -1.9949464115     1.4742565662
 F     -1.9693867623    -2.4592636981     0.7517130898
 H     -0.0930948302    -0.7415233740     2.4725415319
 F     -0.9562419424    -1.0174158975     2.6130740129
 H      1.4539989411     1.9574854416    -0.1660506352
 F      1.5295149845     2.0022377087     0.7467382570
 H      1.4998728947     0.5971776984     1.6101016686
 F      1.4056635903    -0.2240460762     2.0070967807
 H     -2.1192205391    -1.6250600470    -0.6603376765
 F     -2.1046630431    -1.0964465027    -1.4095004092
 H     -0.6370825825    -0.8014626973    -2.1035530755
 F      0.2131368758    -0.6030033706    -2.3839630760
          14
Energy: -54.1186859330987 Kcal/mole
 H      0.8888643369     0.8789118244    -2.0721089150
 F      1.2270644328     1.6809017442    -1.7834536470
 H     -1.6478620120    -1.9918517320     1.4721547208
 F     -1.9693990405    -2.4594278637     0.7518245878
 H     -0.0938079559    -0.7387053159     2.4737308843
 F     -0.9562041127    -1.0175653889     2.6130109205
 H      1.4537057317     1.9592096055    -0.1661091438
 F      1.5295305386     2.0021462458     0.7467413608
 H      1.5054495925     0.5947237414     1.6064160478
 F      1.4053677594    -0.2239158994     2.0072922943
 H     -2.1234285871    -1.6229005271    -0.6589128260
 F     -2.1044398159    -1.0965610603    -1.4095759942
 H     -0.6358066889    -0.7993528114    -2.0982553414
 F      0.2130691926    -0.6031152951    -2.3842441085
          14
Energy: -54.1190966555114 Kcal/mole
 H      0.8926278568     0.8769734953    -2.0710984669
 F      1.2268647868     1.6810045680    -1.7835072489
 H     -1.6488847822    -1.9942957743     1.4741895632
 F     -1.9693447849    -2.4592982129     0.7517166441
 H     -0.0932070007    -0.7406175682     2.4736384853
 F     -0.9562359920    -1.0174639484     2.6130158220
 H      1.4571606803     1.9591235372    -0.1663851434
 F      1.5293472616     2.0021508115     0.7467560019
 H      1.5024628060     0.5953522638     1.6069665291
 F      1.4055262015    -0.2239492411     2.0072630926
 H     -2.1221796375    -1.6235952040    -0.6593698954
 F     -2.1045060698    -1.0965242093    -1.4095517478
 H     -0.6375875960    -0.7989004610    -2.1032838332
 F      0.2131636656    -0.6031392913    -2.3839773587
          14
Energy: -54.11932915503492 Kcal/mole
 H      0.8865011854     0.8790886259    -2.0698115001
 F      1.2271897925     1.6808923652    -1.7835755195
 H     -1.6473733332    -1.9927434227     1.4725145452
 F     -1.9694249637    -2.4593805615     0.7518055000
 H     -0.0937850057    -0.7393919782     2.4725056442
 F     -0.9562053302    -1.0175289631     2.6130759166
 H      1.4541731197     1.9595563149    -0.1661640774
 F      1.5295057448     2.0021278536     0.7467442749
 H      1.5002262129     0.5952204987     1.6061626754
 F      1.4056448476    -0.2239422513     2.0073057352
 H     -2.1227401982    -1.6243394974    -0.6599068472
 F     -2.1044763333    -1.0964847262    -1.4095232637
 H     -0.6366562629    -0.8026537353    -2.1031067821
 F      0.2131142606    -0.6029401887    -2.3839867508
          14
Energy: -54.118886533287125 Kcal/mole
 H      0.8892101975     0.8787169388    -2.0719723542
 F      1.2270460857     1.6809120824    -1.7834608912
 H     -1.6492534861    -1.9932730107     1.4736937875
 F     -1.9693252260    -2.4593524681     0.7517429439
 H     -0.0941129822    -0.7377022231     2.4738547778
 F     -0.9561879318    -1.0176186007     2.6130043482
 H      1.4526938442     1.9605910378    -0.1660883778
 F      1.5295842169     2.0020729640     0.7467402592
 H      1.5041176037     0.5928218447     1.6022296944
 F      1.4054384183    -0.2238150082     2.0075143707
 H     -2.1216585822    -1.6265076713    -0.6653596712
 F     -2.1034966387    -1.1029342007    -1.4179750874
 H     -0.6374916644    -0.8001083603    -2.1038388194
 F      0.2131585767    -0.6030752150    -2.3839479179
          14
Energy: -54.11920950351556 Kcal/mole
 H      0.8890520325     0.8780559830    -2.0699410134
 F      1.2270544760     1.6809471446    -1.7835686492
 H     -1.6466659765    -1.9940288034     1.4730289390
 F     -1.9694624874    -2.4593123751     0.7517782125
 H     -0.0939902470    -0.7396631606     2.4707222327
 F     -0.9561944426    -1.0175145775     2.6131705225
 H      1.4570089663     1.9589001826    -0.1663625831
 F      1.5293553096     2.0021626599     0.7467548051
 H      1.5005446011     0.5954384278     1.6066833228
 F      1.4056279579    -0.2239538119     2.0072781160
 H     -2.1215183490    -1.6265019928    -0.6653523506
 F     -2.1035040777    -1.1029345020    -1.4179754758
 H     -0.6372709179    -0.8048662176    -2.1065718800
 F      0.2131468666    -0.6028228217    -2.3838029354
          14
Energy: -54.11877584978929 Kcal/mole
 H      0.8904742846     0.8781960382    -2.0720007947
 F      1.2269790288     1.6809397150    -1.7834593825
 H     -1.6503525349    -1.9948283149     1.4751808636
 F     -1.9692669240    -2.4592699628     0.7516640579
 H     -0.0935146809    -0.7408581672     2.4712770580
 F     -0.9562196703    -1.0174511852     2.6131410903
 H      1.4558736899     1.9609679292    -0.1663673940
 F      1.5294155334     2.0020529708     0.7467550603
 H      1.4973461621     0.5947680306     1.6045741143
 F      1.4057976277    -0.2239182489     2.0073900047
 H     -2.1244310592    -1.6295958292    -0.6675904518
 F     -2.1033495652    -1.1027703811    -1.4178567497
 H     -0.6371570543    -0.8020040033    -2.1041632458
 F      0.2131408264    -0.6029746555    -2.3839307079
          14
Energy: -54.118939035983786 Kcal/mole
 H      0.8863520024     0.8799060051    -2.0719141756
 F      1.2271977063     1.6808490052    -1.7834639775
 H     -1.6474369359    -1.9933152661     1.4729128597
 F     -1.9694215898    -2.4593502266     0.7517843703
 H     -0.0927820480    -0.7421956831     2.4731461890
 F     -0.9562585347    -1.0173802330     2.6130419372
 H      1.4513754144     1.9616688175    -0.1660246252
 F      1.5296541566     2.0020157902     0.7467368772
 H      1.5031483558     0.5940447272     1.6044674423
 F      1.4054898347    -0.2238798793     2.0073956634
 H     -2.1209016966    -1.6264502327    -0.6653018532
 F     -2.1035367897    -1.1029372477    -1.4179781545
 H     -0.6373433041    -0.8028331086    -2.1053230394
 F      0.2131507065    -0.6029306734    -2.3838691835
          14
Energy: -54.11867330958202 Kcal/mole
 H      0.8865719675     0.8795587749    -2.0712087213
 F      1.2271860377     1.6808674249    -1.7835014002
 H     -1.6487900460    -1.9932810293     1.4734933154
 F     -1.9693498104    -2.4593520428     0.7517535785
 H     -0.0940130628    -0.7389979107     2.4718883968
 F     -0.9561932323    -1.0175498675     2.6131086602
 H      1.4625384388     1.9589489726    -0.1671582080
 F      1.5391294834     2.0038913929     0.7455317671
 H      1.5076956471     0.5954975877     1.6085705933
 F      1.4052486114    -0.2239569502     2.0071780007
 H     -2.1205822485    -1.6263709272    -0.6652394020
 F     -2.1035537357    -1.1029414547    -1.4179814674
 H     -0.6370804558    -0.8064805067    -2.1071698057
 F      0.2131367630    -0.6027371874    -2.3837712168
          14
Energy: -54.118397710853785 Kcal/mole
 H      0.8886082752     0.8790786901    -2.0722722977
 F      1.2270780163     1.6808928923    -1.7834449799
 H     -1.6474079591    -1.9916607919     1.4718278458
 F     -1.9694231269    -2.4594379926     0.7518419278
 H     -0.0941630450    -0.7390135558     2.4709452650
 F     -0.9561852760    -1.0175490375     2.6131586911
 H      1.4656111370     1.9609961938    -0.1675089356
 F      1.5389664839     2.0037827925     0.7455503724
 H      1.5022412242     0.5940667790     1.6042934587
 F      1.4055379559    -0.2238810491     2.0074048928
 H     -2.1235055113    -1.6265207484    -0.6654157270
 F     -2.1033986633    -1.1029335070    -1.4179721138
 H     -0.6366516629    -0.8066095579    -2.1059500546
 F      0.2131140165    -0.6027303415    -2.3838359218
          14
Energy: -54.11905356201551 Kcal/mole
 H      0.8896869436     0.8778436337    -2.0700941696
 F      1.2270207954     1.6809584092    -1.7835605246
 H     -1.6513953104    -1.9926171317     1.4742160672
 F     -1.9692116071    -2.4593872610     0.7517152381
 H     -0.0935652078    -0.7408349384     2.4710153477
 F     -0.9562169899    -1.0174524174     2.6131549734
 H      1.4587516861     1.9622513772    -0.1669884672
 F      1.5393303619     2.0037162079     0.7455227628
 H      1.5060857810     0.5958353851     1.6088549604
 F      1.4053340111    -0.2239748696     2.0071629157
 H     -2.1217033080    -1.6269942344    -0.6656994867
 F     -2.1034942661    -1.1029083897    -1.4179570610
 H     -0.6361460926    -0.8041289234    -2.1026172364
 F      0.2130871972    -0.6028619334    -2.3840127201
          14
Energy: -54.119083587825884 Kcal/mole
 H      0.8899710947     0.8784731382    -2.0721842104
 F      1.2270057219     1.6809250154    -1.7834496527
 H     -1.6496945156    -1.9934502691     1.4740035152
 F     -1.9693018304    -2.4593430650     0.7517265135
 H     -0.0933913329    -0.7411647797     2.4714298510
 F     -0.9562262136    -1.0174349201     2.6131329850
 H      1.4650141642     1.9596995608    -0.1673990316
 F      1.5389981519     2.0038515759     0.7455445423
 H      1.5057421815     0.5948985655     1.6068465036
 F      1.4053522382    -0.2239251735     2.0072694597
 H     -2.1234351807    -1.6281941907    -0.6665810496
 F     -2.1034023942    -1.1028447348    -1.4179102961
 H     -0.6363569353    -0.8030294363    -2.1024695283
 F      0.2130983819    -0.6029202587    -2.3840205557
          14
Energy: -54.11929085280596 Kcal/mole
 H      0.8897741869     0.8783480602    -2.0716060375
 F      1.2270161674     1.6809316505    -1.7834803235
 H     -1.6503436657    -1.9939579626     1.4746174732
 F     -1.9692673945    -2.4593161330     0.7516939445
 H     -0.0947115968    -0.7370901283     2.4714029966
 F     -0.9561561766    -1.0176510709     2.6131344095
 H      1.4604438209     1.9626351561    -0.1671535762
 F      1.5392405980     2.0036958494     0.7455315214
 H      1.5048298171     0.5943610948     1.6055224722
 F      1.4054006371    -0.2238966619     2.0073396965
 H     -2.1216737714    -1.6268078216    -0.6655689378
 F     -2.1034958329    -1.1029182784    -1.4179639863
 H     -0.6364781512    -0.8042148604    -2.1036831799
 F      0.2131048121    -0.6028573747    -2.3839561743
          14
Energy: -54.11928285006236 Kcal/mole
 H      0.8885969512     0.8780031462    -2.0692544965
 F      1.2270786170     1.6809499474    -1.7836050673
 H     -1.6471831766    -1.9942415309     1.4733973170
 F     -1.9694350511    -2.4593010904     0.7517586709
 H     -0.0927421077    -0.7421343193     2.4735139484
 F     -0.9562606535    -1.0173834882     2.6130224284
 H      1.4617270117     1.9592387647    -0.1671039546
 F      1.5391725277     2.0038760201     0.7455288891
 H      1.5031253950     0.5946487455     1.6056904369
 F      1.4054910527    -0.2239119211     2.0073307863
 H     -2.1219140435    -1.6258908063    -0.6649371370
 F     -2.1034830870    -1.1029669240    -1.4179975019
 H     -0.6373113558    -0.8027198836    -2.1051443198
 F      0.2131490117    -0.6029366797    -2.3838786642
          14
Energy: -54.11881574729807 Kcal/mole
 H      0.8933603449     0.8764203097    -2.0704007623
 F      1.2268259300     1.6810339132    -1.7835442605
 H     -1.6499372902    -1.9941750029     1.4745777542
 F     -1.9692889517    -2.4593046195     0.7516960515
 H     -0.0943340655    -0.7389670198     2.4700031756
 F     -0.9561762038    -1.0175515062     2.6132086668
 H      1.4605269291     1.9648211282    -0.1672563290
 F      1.5392361893     2.0035798886     0.7455369722
 H      1.5061675568     0.5935741030     1.6042561275
 F      1.4053296731    -0.2238549138     2.0074068731
 H     -2.1221867075    -1.6263962806    -0.6652951311
 F     -2.1034686228    -1.1029401097    -1.4179785111
 H     -0.6376490911    -0.8006385743    -2.1046918048
 F      0.2131669278    -0.6030470884    -2.3839026690
          14
Energy: -54.118498291754946 Kcal/mole
 H      0.8857429929     0.8796279235    -2.0704174830
 F      1.2272300129     1.6808637568    -1.7835433736
 H     -1.6482779668    -1.9929213008     1.4730331374
 F     -1.9693769750    -2.4593711255     0.7517779898
 H     -0.0943115769    -0.7407272566     2.4667642102
 F     -0.9561773968    -1.0174581297     2.6133804864
 H      1.4643366575     1.9587788869    -0.1672988419
 F      1.5390340921     2.0039004155     0.7455392275
 H      1.5036101128     0.5954079344     1.6073602455
 F      1.4054653395    -0.2239521943     2.0072422068
 H     -2.1228886556    -1.6276508588    -0.6661870904
 F     -2.1034313861    -1.1028735573    -1.4179311948
 H     -0.6374971826    -0.8032741990    -2.1061110224
 F      0.2131588694    -0.6029072746    -2.3838273828
          14
Energy: -54.11887460305935 Kcal/mole
 H      0.8873693091     0.8783395198    -2.0687418549
 F      1.2271437406     1.6809321036    -1.7836322617
 H     -1.6479260519    -1.9937606648     1.4734185867
 F     -1.9693956433    -2.4593265992     0.7517575426
 H     -0.0947756471    -0.7383289588     2.4685963816
 F     -0.9561527789    -1.0175853538     2.6132832940
 H      1.4595381965     1.9620694429    -0.1670492741
 F      1.5392886393     2.0037258591     0.7455259885
 H      1.5043801341     0.5942391712     1.6051633676
 F      1.4054244917    -0.2238901941     2.0073587461
 H     -2.1208521495    -1.6256031780    -0.6647123004
 F     -2.1035394180    -1.1029821820    -1.4180094290
 H     -0.6375891678    -0.8046774435    -2.1074121493
 F      0.2131637490    -0.6028328357    -2.3837583610
          14
Energy: -54.119012071361254 Kcal/mole
 H      0.8910392424     0.8773535990    -2.0703088339
 F      1.2269490591     1.6809844044    -1.7835491371
 H     -1.6502631499    -1.9918541471     1.4732230467
 F     -1.9692716656    -2.4594277356     0.7517679156
 H     -0.0943240997    -0.7391630825     2.4696822623
 F     -0.9561767325    -1.0175411055     2.6132256905
 H      1.4596715894     1.9638482746    -0.1671402892
 F      1.5392815631     2.0036314962     0.7455308166
 H      1.5057794706     0.5941357849     1.6052999564
 F      1.4053502601    -0.2238847097     2.0073515004
 H     -2.1229231430    -1.6249626819    -0.6643189279
 F     -2.1034295566    -1.1030161588    -1.4180302965
 H     -0.6370766256    -0.8033797804    -2.1049021420
 F      0.2131365598    -0.6029016737    -2.3838915111
          14
Energy: -54.11968084032192 Kcal/mole
 H      0.8888813328     0.8788746479    -2.0720255223
 F      1.2270635312     1.6809037163    -1.7834580708
 H     -1.6489056579    -1.9932860262     1.4735478791
 F     -1.9693436775    -2.4593517777     0.7517506840
 H     -0.0938511375    -0.7398524718     2.4711960024
 F     -0.9562018220    -1.0175045350     2.6131453901
 H      1.4607265786     1.9607131509    -0.1670893396
 F      1.5392255984     2.0037978073     0.7455281138
 H      1.5042351255     0.5945438295     1.6057480099
 F      1.4054321841    -0.2239063555     2.0073277322
 H     -2.1215171764    -1.6285156812    -0.6667573766
 F     -2.1035041399    -1.1028276804    -1.4179009424
 H     -0.6370559942    -0.8024987837    -2.1042085691
 F      0.2131354654    -0.6029484086    -2.3839283036
          14
Energy: -54.11930920488406 Kcal/mole
 H      0.8903452574     0.8777891221    -2.0707148990
 F      1.2269858734     1.6809613009    -1.7835275963
 H     -1.6475346821    -1.9947013637     1.4738502287
 F     -1.9694164046    -2.4592766973     0.7517346450
 H     -0.0939603916    -0.7397648598     2.4707046140
 F     -0.9561960263    -1.0175091826     2.6131714571
 H      1.4598659136     1.9632627157    -0.1671314955
 F      1.5392712547     2.0036625588     0.7455303501
 H      1.5036189468     0.5941605749     1.6048171324
 F      1.4054648709    -0.2238860248     2.0073771131
 H     -2.1204186877    -1.6275228585    -0.6660381062
 F     -2.1035624122    -1.1028803474    -1.4179390980
 H     -0.6366172916    -0.8037589959    -2.1037778873
 F      0.2131121932    -0.6028815572    -2.3839511502
          14
Energy: -54.11943408011507 Kcal/mole
 H      0.8907425628     0.8775466248    -2.0705019514
 F      1.2269647973     1.6809741648    -1.7835388927
 H     -1.6483907001    -1.9931574857     1.4732359911
 F     -1.9693709948    -2.4593585965     0.7517672289
 H     -0.0940435360    -0.7398113457     2.4701121140
 F     -0.9561916157    -1.0175067166     2.6132028879
 H      1.4613355242     1.9595961031    -0.1670880485
 F      1.5391932952     2.0038570641     0.7455280454
 H      1.5049598434     0.5940730250     1.6049685567
 F      1.4053937395    -0.2238813804     2.0073690804
 H     -2.1212261184    -1.6265386203    -0.6653708971
 F     -2.1035195799    -1.1029325589    -1.4179744919
 H     -0.6370915098    -0.8029720153    -2.1046549163
 F      0.2131373494    -0.6029233047    -2.3839046259
          14
Energy: -54.11927332216196 Kcal/mole
 H      0.8888594698     0.8785313646    -2.0710438226
 F      1.2270646910     1.6809219267    -1.7835101477
 H     -1.6519155594    -1.9915735629     1.4737695846
 F     -1.9691840091    -2.4594426199     0.7517389230
 H     -0.0931340850    -0.7423695763     2.4706551909
 F     -0.9562398600    -1.0173710084     2.6131740789
 H      1.4605662214     1.9598629711    -0.1670349759
 F      1.5392341050     2.0038429074     0.7455252300
 H      1.5040485713     0.5957150632     1.6080982614
 F      1.4054420803    -0.2239684868     2.0072030568
 H     -2.1228186411    -1.6275224447    -0.6660956558
 F     -2.1034351002    -1.1028803693    -1.4179360451
 H     -0.6373087887    -0.8030910626    -2.1054029167
 F      0.2131488755    -0.6029169895    -2.3838649462
          14
Energy: -54.11924627373449 Kcal/mole
 H      0.8882514439     0.8781390229    -2.0692267733
 F      1.2270969454     1.6809427395    -1.7836065379
 H     -1.6490411829    -1.9925679944     1.4731439017
 F     -1.9693364882    -2.4593898676     0.7517721140
 H     -0.0934822218    -0.7410870500     2.4710286218
 F     -0.9562213921    -1.0174390435     2.6131542692
 H      1.4592117040     1.9599253635    -0.1669201473
 F      1.5393059590     2.0038395976     0.7455191386
 H      1.5055766235     0.5942178614     1.6054163614
 F      1.4053610207    -0.2238890637     2.0073453254
 H     -2.1262593173    -1.6385131908    -0.6755122590
 F     -2.1093944181    -1.1180063177    -1.4302818729
 H     -0.6388799548    -0.8077857200    -2.1137544589
 F      0.2132322223    -0.6026679488    -2.3834219162
          14
Energy: -54.11827816483401 Kcal/mole
 H      0.8859838508     0.8795372088    -2.0704507050
 F      1.2272172359     1.6808685690    -1.7835416112
 H     -1.6504929592    -1.9929409958     1.4740276737
 F     -1.9692594748    -2.4593700807     0.7517252320
 H     -0.0924290930    -0.7432388754     2.4732773263
 F     -0.9562772582    -1.0173248941     2.6130349807
 H      1.4564961213     1.9610669433    -0.1667316869
 F      1.5394500144     2.0037790394     0.7455091412
 H      1.5075270547     0.5953823881     1.6082905950
 F      1.4052575548    -0.2239508391     2.0071928539
 H     -2.1242515825    -1.6368662128    -0.6743372699
 F     -2.1095009238    -1.1180936860    -1.4303442034
 H     -0.6381216129    -0.8088593480    -2.1121830333
 F      0.2131919940    -0.6026109953    -2.3835052767
          14
Energy: -54.11919372997079 Kcal/mole
 H      0.8859782238     0.8796627963    -2.0707945300
 F      1.2272175344     1.6808619068    -1.7835233721
 H     -1.6490659798    -1.9943689774     1.4743170109
 F     -1.9693351728    -2.4592943296     0.7517098833
 H     -0.0934499836    -0.7405117640     2.4723506185
 F     -0.9562231023    -1.0174695610     2.6130841404
 H      1.4589080978     1.9612483957    -0.1669561080
 F      1.5393220646     2.0037694138     0.7455210462
 H      1.5054018889     0.5936113785     1.6041409798
 F      1.4053702900    -0.2238568912     2.0074129814
 H     -2.1278500562    -1.6347333926    -0.6729574503
 F     -2.1093100331    -1.1182068272    -1.4304173996
 H     -0.6371198876    -0.8073260113    -2.1079162300
 F      0.2131388548    -0.6026923353    -2.3837316207
          14
Energy: -54.119232014942995 Kcal/mole
 H      0.8904612851     0.8773993113    -2.0697587495
 F      1.2269797184     1.6809819795    -1.7835783178
 H     -1.6502469983    -1.9901410092     1.4721025655
 F     -1.9692725224    -2.4595186136     0.7518273545
 H     -0.0932527784    -0.7405828138     2.4734242471
 F     -0.9562335636    -1.0174657920     2.6130271869
 H      1.4617462234     1.9606532765    -0.1671736119
 F      1.5391715086     2.0038009835     0.7455325843
 H      1.5036442003     0.5937055635     1.6039000277
 F      1.4054635313    -0.2238618875     2.0074257634
 H     -2.1285255822    -1.6363385499    -0.6740715436
 F     -2.1092741980    -1.1181216773    -1.4303582995
 H     -0.6379126719    -0.8070292863    -2.1101509078
 F      0.2131809102    -0.6027080759    -2.3836130762
          14
Energy: -54.119476503218024 Kcal/mole
 H      0.8880395252     0.8786042528    -2.0702804745
 F      1.2271081872     1.6809180601    -1.7835506415
 H     -1.6474082989    -1.9924811493     1.4723602872
 F     -1.9694231089    -2.4593944745     0.7518136830
 H     -0.0931633306    -0.7412587679     2.4726405939
 F     -0.9562383086    -1.0174299342     2.6130687578
 H      1.4620952870     1.9603522926    -0.1671888716
 F      1.5391529916     2.0038169500     0.7455333938
 H      1.5040280217     0.5938903590     1.6043683440
 F      1.4054431704    -0.2238716904     2.0074009203
 H     -2.1285765339    -1.6362214284    -0.6739926032
 F     -2.1092714951    -1.1181278904    -1.4303624871
 H     -0.6369942062    -0.8072633006    -2.1074826611
 F      0.2131321877    -0.6026956620    -2.3837546206
          14
Energy: -54.11952329160623 Kcal/mole
 H      0.8870150943     0.8790347056    -2.0702712519
 F      1.2271625309     1.6808952256    -1.7835511308
 H     -1.6477579469    -1.9923546994     1.4724345017
 F     -1.9694045609    -2.4594011824     0.7518097461
 H     -0.0931488013    -0.7412060716     2.4728336764
 F     -0.9562390793    -1.0174327296     2.6130585153
 H      1.4617431079     1.9592646262    -0.1671065849
 F      1.5391716739     2.0038746482     0.7455290287
 H      1.5061995485     0.5945170899     1.6061821383
 F      1.4053279760    -0.2239049371     2.0073047027
 H     -2.1275468312    -1.6382960738    -0.6753924980
 F     -2.1093261184    -1.1180178352    -1.4302882260
 H     -0.6379539306    -0.8067246079    -2.1100518728
 F      0.2131830988    -0.6027242384    -2.3836183298
          14
Energy: -54.11935657912899 Kcal/mole
 H      0.8890625152     0.8780574010    -2.0699573608
 F      1.2270539199     1.6809470693    -1.7835677820
 H     -1.6487477935    -1.9930789172     1.4733439856
 F     -1.9693520518    -2.4593627643     0.7517615001
 H     -0.0938667165    -0.7398892477     2.4710295345
 F     -0.9562009956    -1.0175025841     2.6131542208
 H      1.4618705218     1.9620757970    -0.1672502255
 F      1.5391649149     2.0037255221     0.7455366485
 H      1.5069845750     0.5950213045     1.6074114415
 F      1.4052863321    -0.2239316845     2.0072394910
 H     -2.1300727247    -1.6363953479    -0.6741515182
 F     -2.1091921256    -1.1181186643    -1.4303540571
 H     -0.6381178353    -0.8068002140    -2.1106188850
 F      0.2131917936    -0.6027202276    -2.3835882511
          14
Energy: -54.11938073824493 Kcal/mole
 H      0.8893286132     0.8780331714    -2.0702032345
 F      1.2270398040     1.6809483547    -1.7835547389
 H     -1.6496527826    -1.9911492555     1.4724952985
 F     -1.9693040442    -2.4594651284     0.7518065209
 H     -0.0930698236    -0.7422494047     2.4712777440
 F     -0.9562432689    -1.0173773832     2.6131410539
 H      1.4624993402     1.9606966451    -0.1672392186
 F      1.5391315575     2.0037986829     0.7455360646
 H      1.5061410637     0.5941727286     1.6054656546
 F      1.4053310785    -0.2238866695     2.0073427105
 H     -2.1272563303    -1.6361073576    -0.6738820026
 F     -2.1093415288    -1.1181339416    -1.4303683542
 H     -0.6372323035    -0.8087563525    -2.1093317327
 F      0.2131448182    -0.6026164590    -2.3836565316
          14
Energy: -54.119240349345986 Kcal/mole
 H      0.8911477860     0.8767500334    -2.0687393032
 F      1.2269433011     1.6810164222    -1.7836323971
 H     -1.6496116930    -1.9923255011     1.4732400010
 F     -1.9693062239    -2.4594027313     0.7517670162
 H     -0.0960165891    -0.7388746741     2.4781572142
 F     -0.9594280804    -1.0138932498     2.6187786198
 H      1.4588770880     1.9630294207    -0.1670345357
 F      1.5393237096     2.0036749345     0.7455252066
 H      1.5047151630     0.5949550927     1.6067060294
 F      1.4054067192    -0.2239281721     2.0072769115
 H     -2.1262350082    -1.6367703078    -0.6743129056
 F     -2.1093957076    -1.1180987736    -1.4303454958
 H     -0.6379750430    -0.8068891937    -2.1102404134
 F      0.2131842188    -0.6027155075    -2.3836083282
          14
Energy: -54.11848190534651 Kcal/mole
 H      0.8875472028     0.8785805159    -2.0696306439
 F      1.2271343037     1.6809193193    -1.7835851135
 H     -1.6504485496    -1.9917109785     1.4732121982
 F     -1.9692618306    -2.4594353303     0.7517684911
 H     -0.0976464751    -0.7342099147     2.4773665679
 F     -0.9593416187    -1.0141407046     2.6188205618
 H      1.4604060302     1.9574627080    -0.1669021391
 F      1.5392426028     2.0039702358     0.7455181833
 H      1.5066833733     0.5952642972     1.6078329734
 F      1.4053023102    -0.2239445747     2.0072171297
 H     -2.1285667960    -1.6392239815    -0.6760582709
 F     -2.1092720117    -1.1179686119    -1.4302529082
 H     -0.6360748292    -0.8088978111    -2.1058755234
 F      0.2130834168    -0.6026089550    -2.3838398755
          14
Energy: -54.11902563023841 Kcal/mole
 H      0.8901047851     0.8780554267    -2.0711771598
 F      1.2269986299     1.6809471741    -1.7835030745
 H     -1.6546745578    -1.9916369393     1.4750162998
 F     -1.9690376506    -2.4594392579     0.7516727877
 H     -0.0965926944    -0.7383756605     2.4756221220
 F     -0.9593975194    -1.0139197214     2.6189131006
 H      1.4617368422     1.9577755011    -0.1670941993