          14
Energy: -52.66683676230588 Kcal/mole
 H      1.5141179745    -4.8538070178    -0.5716767870
 F      0.7416071617    -4.5381287151    -0.9517600059
 H      1.0827932212    -4.7629250035     4.6477887795
 F      1.8911745627    -5.0843669931     4.3578169634
 H     -0.8279227745    -3.6530973250     4.1486163335
 F     -0.4649266441    -3.9105999890     4.9503738949
 H      0.0442701870    -3.2181256155    -0.3546475061
 F     -0.1970050312    -2.5217634896     0.1910218615
 H     -0.9029011763    -2.9537250130     1.6828928670
 F     -1.2034521101    -3.2853328542     2.4832642657
 H      2.9353904013    -4.5016355301     3.2359182998
 F      3.4209665180    -4.2260546114     2.5084844594
 H      3.1774824811    -4.9176971606     1.0463859371
 F      2.9497972705    -5.2554611619     0.2248240561
          14
Energy: -53.129000573942804 Kcal/mole
 H      2.0451119986    -5.6290220781    -0.6990703777
 F      1.5756148941    -4.9981809111    -1.1707703785
 H      1.2340110352    -4.6087240513     4.3374740985
 F      1.8719680431    -5.2629809727     4.2610036008
 H     -0.5049397269    -3.2246663514     3.7278213980
 F      0.0197834213    -3.4009908046     4.4588920545
 H      1.0833387827    -3.8414161491    -0.0527301174
 F      0.7180683234    -3.3730121508     0.6458857899
 H     -0.6838652474    -3.0799803675     1.5847434525
 F     -1.2568245835    -2.9962834738     2.2958000108
 H      3.1447249319    -5.3364173292     3.1431873016
 F      3.6901161406    -5.4126802596     2.4099606007
 H      3.1389702893    -6.3231309687     1.1289423260
 F      2.7858091444    -6.6507581163     0.3486688753
          14
Energy: -53.1261307382394 Kcal/mole
 H      2.6881628681    -7.2713229133     0.0659460298
 F      1.8181910250    -7.1106418635    -0.1753413350
 H      1.7830400031    -5.3099066131     4.7680133201
 F      2.4888658573    -5.8907415252     4.8410178986
 H     -0.0498724233    -4.4001978537     3.7592550535
 F      0.3211318252    -4.4519681389     4.5962524759
 H      1.4970479297    -5.4633528333     0.1387523897
 F      1.3796493682    -4.6396428159     0.5242499705
 H      0.1214891207    -4.4928286712     1.5608259042
 F     -0.5458181073    -4.3950119171     2.1821325485
 H      3.7034592713    -5.7768520262     3.6640733525
 F      4.2741024560    -5.7565629416     2.9465472492
 H      4.2225436341    -6.8010026334     1.6577207481
 F      4.1469926330    -7.3272276218     0.9105472022
          14
Energy: -52.065410788101204 Kcal/mole
 H      2.1445594167    -6.2761790524    -0.4824782737
 F      1.5707681550    -5.7462871851    -0.9629646908
 H      3.1515041735    -4.2109564751     4.0204750668
 F      3.2191313441    -5.1097061391     4.1894857392
 H      2.2169450018    -2.1697049441     3.1321524918
 F      2.8172347957    -2.5996122613     3.6759547187
 H      1.0890342456    -4.7503904421     0.2340006853
 F      0.8427302635    -4.2729949094     0.9771809150
 H      0.8535981362    -2.7054173387     1.5040884297
 F      0.9376398979    -1.9137078269     1.9590851673
 H      3.6575556568    -6.6541258793     3.5705363598
 F      3.8376062401    -7.3755406057     3.0338506230
 H      3.4740943314    -7.2096001301     1.4017773189
 F      3.3383781597    -7.1233893169     0.4989828703
          14
Energy: -53.19207865840325 Kcal/mole
 H      2.5291264623    -5.6707005266     0.1744323786
 F      2.5809127788    -4.8895823313    -0.3031255158
 H      3.3846154281    -3.8478206749     3.8584611885
 F      3.4030628531    -4.7008373215     4.1944839454
 H      3.0306080937    -1.8613402605     2.6510083783
 F      3.6505760824    -2.3384773321     3.1294108323
 H      1.3969058578    -3.7887421989    -0.0288895723
 F      0.8001262638    -3.1547881150     0.2589390846
 H      1.4548787141    -1.8817336341     1.0789710338
 F      1.9138493469    -1.2498555090     1.5595592082
 H      3.8702258052    -6.1257553312     3.6316723818
 F      4.0435755179    -6.8930400674     3.1603837115
 H      2.9802945246    -7.0410716020     1.8393351906
 F      2.3847557200    -6.9544129370     1.1474444420
          14
Energy: -52.84485629544528 Kcal/mole
 H      1.0644053256    -6.2815258570    -0.1256296180
 F      0.9105519691    -5.6543435665    -0.7766753301
 H      4.6765885981    -3.5720198656     2.2248265304
 F      5.0257940577    -4.4135687438     2.1211924022
 H      2.7275568367    -2.4862571616     2.2381963810
 F      3.6107806576    -2.2617891578     2.3402688914
 H      0.0346103318    -4.2360931171    -0.5158118223
 F     -0.3721457492    -3.5336139727    -0.0892423177
 H      0.5415027880    -3.1182062463     1.2257034487
 F      1.1259242020    -2.9519196652     1.9124999133
 H      3.7445856383    -5.3524758574     2.6278279385
 F      2.9792148343    -5.7771220620     2.9012728750
 H      1.9602669637    -6.6475618325     1.8692520623
 F      1.4392784732    -7.1287908006     1.2879787419
          14
Energy: -53.10658941104971 Kcal/mole
 H      2.2948606533    -4.7712808612    -0.6248701379
 F      2.5383802048    -3.9526130121    -0.9585918498
 H      4.4985548637    -2.7943770351     2.5448678916
 F      4.3565630688    -3.6878965107     2.3953678015
 H      4.1449368636    -0.6889402361     1.9874252574
 F      4.4747762982    -1.1275402924     2.7220850004
 H      1.9261164039    -2.4697514801    -0.4626656605
 F      1.6483843980    -1.7440491083     0.0242737613
 H      2.8390237517    -0.6115252418     0.2417679064
 F      3.5908735569    -0.1716776130     0.5283772814
 H      3.1489387252    -4.7796879767     2.5391592737
 F      2.4495316678    -5.3711797415     2.5822436125
 H      1.9803489219    -5.9798331852     1.1191360896
 F      1.8975172150    -6.1166345686     0.2161890869
          14
Energy: -53.377958309000704 Kcal/mole
 H      1.2369779184    -3.5994160210    -0.8326334109
 F      1.1502840135    -2.7375553438    -1.1335808146
 H      4.4226348872    -2.6532105973     2.9068912581
 F      3.9695542037    -3.4493360129     2.9492140285
 H      4.6663344999    -0.5713916855     2.1550880897
 F      5.0808239676    -1.1913521514     2.6886951567
 H      1.1807460828    -1.3418279642    -0.1759965819
 F      1.3036919315    -0.6334039126     0.3931331761
 H      2.8079227329    -0.0428526872     0.8786028464
 F      3.6438574994     0.2548037506     1.1099093770
 H      3.7021649876    -4.7156852118     1.8032757660
 F      3.4711333591    -5.3052565554     1.1400118536
 H      2.0001636076    -5.3256583845     0.3167071830
 F      1.2748918522    -5.1114851773    -0.2019446445
          14
Energy: -53.18228042662079 Kcal/mole
 H      1.3435420551    -3.8802518286    -0.2994383878
 F      1.1542509833    -2.9879231363    -0.3932861100
 H      4.4973834465    -3.0654467344     3.9320688097
 F      4.2577033499    -3.9260352420     3.7251150180
 H      4.2907345851    -1.0495121033     3.5999348730
 F      4.9438444734    -1.5263437743     4.0323328741
 H      1.0147978389    -2.1679280463     1.0226809956
 F      0.9376467685    -1.7142613173     1.8158538717
 H      2.2572142513    -0.8215766375     2.3610934373
 F      3.0580289541    -0.4656511004     2.6310968146
 H      4.1670603045    -4.6219915457     2.2000911998
 F      4.1432231822    -4.8783453187     1.3199755627
 H      2.7522095353    -5.2220308391     0.5873841005
 F      1.9279377561    -5.2946640359     0.1921759874
          14
Energy: -52.74516581992259 Kcal/mole
 H      2.7536533542    -3.1902129883    -0.0223468814
 F      3.1642337867    -2.4806673710    -0.4332698979
 H      5.4952133954    -2.8865121772     3.5340520023
 F      5.8283681561    -3.7395432983     3.4867782060
 H      4.4219057180    -0.6483032623     3.1589788415
 F      4.7420122700    -1.3790294670     3.6111513851
 H      2.6814903723    -0.9912428009     0.0696655446
 F      2.3695758816    -0.2052239755     0.4243100943
 H      3.2462329987     0.4829351460     1.6479817206
 F      3.9467298330     0.6376776361     2.2191629062
 H      4.7579912310    -4.9414875360     2.8058287350
 F      4.0667553977    -5.3869775384     2.4000939933
 H      2.7138652489    -4.7717152396     1.5315415480
 F      2.0880047095    -4.2922011244     1.0632961010
          14
Energy: -52.78115161849469 Kcal/mole
 H      2.1261881434    -3.5863613683    -0.9915135622
 F      2.6595915489    -3.0255005498    -1.4832502287
 H      4.9815892485    -3.1812626434     2.1855293768
 F      4.8751698610    -4.0307026150     1.8568720347
 H      4.5512162889    -0.8447139698     2.0392787596
 F      4.6233448868    -1.5311075631     2.6430587696
 H      2.5693073153    -1.4528018167    -0.9765357608
 F      2.5818720605    -0.5807993735    -0.6930875885
 H      3.8840232239     0.0689485543     0.1257721895
 F      4.5426528611     0.2361638630     0.7415116161
 H      3.4565644214    -4.7601612123     2.3049594554
 F      2.5796690745    -5.0081699149     2.4071124488
 H      1.7432582967    -4.5949341480     1.0842592857
 F      1.2833614341    -4.3639635420     0.3252886308
          14
Energy: -53.253011329584425 Kcal/mole
 H      1.8296209203    -4.1784896911    -1.4486702933
 F      2.0336067563    -3.3324327516    -1.7375758726
 H      5.7984231590    -3.2895443408     0.7160660720
 F      5.5759001290    -4.0040731955     0.1861405896
 H      5.5626159189    -1.2754072183     1.0951128353
 F      6.0525738901    -1.8983674760     1.5563619044
 H      2.0814399038    -2.0898208227    -0.7258781212
 F      2.2129069428    -1.3966091981    -0.1401622675
 H      3.7320530582    -0.6495230127    -0.0567192407
 F      4.5669030812    -0.3495456115     0.1755047848
 H      4.4678554964    -5.1442925425     0.7305473527
 F      3.7106145060    -5.6400677669     0.8777954743
 H      2.3294804750    -5.6676116622    -0.0724921764
 F      1.6565430633    -5.6133312354    -0.6930547238
          14
Energy: -53.21778214062476 Kcal/mole
 H      1.1423593658    -3.1559009863    -2.2674713291
 F      0.6457543871    -2.4457182622    -1.9676163750
 H      6.3484685523    -3.4475532002    -1.1413175127
 F      6.2267690245    -4.3013870398    -1.4528395813
 H      5.5685217702    -1.4270456451    -0.6279987414
 F      6.3891932986    -1.8308505044    -0.6937929510
 H      1.2813587803    -1.7487855599    -0.6005653503
 F      1.7267706967    -1.3632363038     0.1021785544
 H      3.1942547024    -0.9473918751    -0.2895801932
 F      4.0135307851    -0.7287551745    -0.6386843230
 H      5.2215223108    -4.4361041569    -2.8189061713
 F      4.6195361050    -4.2749918767    -3.4916204057
 H      3.0620687471    -4.2938950063    -3.0556178389
 F      2.2052247088    -4.3562171691    -2.7349572050
          14
Energy: -53.30767561622639 Kcal/mole
 H      1.4995652348    -0.9437161889    -3.9011163907
 F      0.9927339758    -0.3174162346    -3.4632129286
 H      6.2485509059    -2.0779670036    -1.8580881620
 F      6.5877564236    -2.0160612678    -2.7077918143
 H      4.8911709405    -1.3171965515    -0.3181674803
 F      5.3733589271    -2.0772663167    -0.4933179804
 H      1.2152428652    -0.1084185235    -1.8994875360
 F      1.4314571958     0.0040246646    -1.0154644069
 H      3.0287653450     0.0975758370    -0.4915518211
 F      3.8864439923     0.0695998704    -0.1682969940
 H      5.6598452907    -2.0779839775    -4.0791421476
 F      5.0593449423    -2.1803780939    -4.7645644819
 H      3.3867696892    -2.0846353638    -4.6935828899
 F      2.4739456897    -2.0497887538    -4.6134139459
          14
Energy: -53.36308292626468 Kcal/mole
 H      1.5197366141    -0.6184734814    -3.8923726950
 F      1.2515512043     0.1037724417    -3.3950534689
 H      4.7533136507    -4.0244307854    -1.8929156137
 F      5.1936876312    -3.9856582273    -2.6963186545
 H      3.2586923067    -3.3812821521    -0.1648059448
 F      3.9454537646    -3.9284493259    -0.4291083923
 H      1.7402185527     0.0652405036    -1.8679627940
 F      2.1100354534    -0.0147235583    -1.0326603285
 H      2.0848626093    -1.3909803610    -0.1552671387
 F      2.0674486860    -2.2347934523     0.2032927895
 H      4.7724378694    -3.3615291300    -4.1914320382
 F      4.4636431069    -2.9657479326    -4.9588250526
 H      2.9207108416    -2.2963025173    -4.9553330642
 F      2.1016872420    -1.9569187792    -4.7210084568
          14
Energy: -53.03385670685506 Kcal/mole
 H      4.8762859752    -0.0165684607    -3.5627948009
 F      4.8998147820     0.4162040187    -2.7546838083
 H      4.6285263998    -3.2306950482    -1.0084097525
 F      4.8920880057    -3.4895856966    -1.8476951104
 H      3.4762512652    -1.9891025842     0.6540639769
 F      4.0671783651    -2.6760318878     0.5132723064
 H      3.5002474301     0.5904926564    -1.9022397323
 F      2.7693115884     0.6800839152    -1.3558010792
 H      2.6284384077    -0.0861280263     0.1106072052
 F      2.6320611574    -0.6174406394     0.8579911647
 H      4.2681796188    -3.3924385557    -3.4055652453
 F      3.9554925616    -3.2430944220    -4.2545718024
 H      4.3461212007    -1.7653705500    -4.6955355666
 F      4.6444729157    -0.9220460331    -4.8972259564
          14
Energy: -53.04842561814931 Kcal/mole
 H      5.4796124984     0.2631073758    -2.9145895102
 F      5.9857216356     0.6696129945    -2.2669046153
 H      3.5478509969    -2.9184820987    -0.1149881003
 F      3.7263892443    -3.4495073656    -0.8409531546
 H      3.7065232094    -1.0394662085     1.3024200708
 F      3.2234018579    -1.7603459038     1.0060837339
 H      5.2478455489     1.5071679332    -1.0649526401
 F      4.7561102375     1.8525384318    -0.3722733476
 H      4.6649472442     0.9285438032     1.0213801070
 F      4.6570462190     0.2875761103     1.6771140396
 H      3.0473211705    -2.7435213978    -2.1823959464
 F      2.8280289285    -2.1427847499    -2.8395986491
 H      3.7496886374    -1.0800112022    -3.6539551295
 F      4.4623494347    -0.5863463925    -3.9527839161
          14
Energy: -52.95923559791839 Kcal/mole
 H      4.2461902847     1.2346083611    -3.1216970001
 F      4.4771152451     1.9963414016    -2.6663669685
 H      2.5720455703    -2.9064666969     0.1893803701
 F      2.6047296987    -3.2902110051    -0.6428221615
 H      3.1889861317    -1.2863735571     1.6155985316
 F      2.6222020389    -2.0059150706     1.6592425755
 H      3.8138513327     2.2659027372    -1.1564694699
 F      3.5421179691     2.1589088424    -0.2872156027
 H      3.9929160342     0.7621706283     0.6188762021
 F      4.1710070868    -0.0581176946     0.9880640192
 H      2.0251635470    -2.1788383773    -1.7022940161
 F      1.8092740450    -1.4762385276    -2.2505951872
 H      2.8385720369    -0.6317454105    -3.2861121115
 F      3.4840656229    -0.1845555888    -3.7596607296
          14
Energy: -53.33677370091549 Kcal/mole
 H      3.6329275273     1.6268915838    -1.7948183796
 F      3.5731508165     2.3906450086    -1.2908377739
 H      3.3605194244    -3.3059704571     0.7350148805
 F      3.1765899205    -3.6507223105    -0.0945663977
 H      4.4097291818    -1.7288679721     2.0355152730
 F      3.8120416437    -2.4240609985     2.0546271238
 H      4.3149801726     2.3294949468     0.2025257776
 F      4.7158843793     2.1292388562     1.0025647236
 H      5.1179383727     0.5522681582     1.5298851659
 F      5.2586032416    -0.3444275626     1.6604193719
 H      2.7106458993    -2.5425951630    -1.2759788135
 F      2.4985972400    -1.8392141772    -1.8247770961
 H      3.4244207635    -0.5939885444    -2.3432739466
 F      3.8540317767     0.1878211654    -2.5556343833
          14
Energy: -53.15309406635697 Kcal/mole
 H      4.3852447809     1.8866747838    -2.7846847675
 F      4.8349147060     2.4324684907    -2.2009081082
 H      4.3985665161    -2.2119577380    -1.0920900598
 F      4.7785927628    -2.3474215174    -1.9155696383
 H      4.4008966303    -1.0648272074     0.8266380715
 F      3.8206195436    -1.5483609025     0.3066739688
 H      4.8474638533     2.2051451682    -0.5423323517
 F      4.8033476853     2.1324466133     0.3707162143
 H      5.2178267736     0.8036885522     1.2619503213
 F      5.3932482073    -0.0206883095     1.6232246084
 H      4.1384942143    -1.9342607418    -3.4154214590
 F      3.8324339287    -1.6127332335    -4.2178154788
 H      3.6954868082     0.0098156545    -4.0673583665
 F      3.6013216642     0.8859499000    -3.8135657157
          14
Energy: -53.03868863502626 Kcal/mole
 H      4.3804327801     1.4213176781    -2.9180980148
 F      5.1757948944     1.6326258275    -2.5135773439
 H      5.0912775040    -1.7705595270    -1.7553715825
 F      5.3650074233    -2.1137732623    -2.5604586978
 H      4.6041519729    -0.6374227567     0.3991798516
 F      4.3265780291    -1.0157638334    -0.3886651429
 H      5.4302961445     2.1006856489    -0.8663395568
 F      5.5244372628     2.2571115006     0.0323024202
 H      5.4102157618     1.0756091291     1.1847450539
 F      5.2551816403     0.2786844370     1.6110834833
 H      4.2461694000    -1.7576624872    -3.7280050469
 F      3.6314123276    -1.4768463975    -4.3477671509
 H      3.0802513973     0.0616853235    -4.0394056626
 F      2.9585744419     0.8683791971    -3.6206829468
          14
Energy: -53.2875363266627 Kcal/mole
 H      3.5520339596     1.1860130537    -3.3684651672
 F      4.1845345377     1.6196415724    -2.8656746278
 H      4.3616015068    -2.6525931490    -1.1540409209
 F      4.3677027941    -2.8283937133    -2.0540108847
 H      4.8285756159    -1.4190563660     0.6131038694
 F      4.4080801378    -2.2051774946     0.3984270795
 H      4.0047120524     1.9255989666    -1.3015704786
 F      3.9350610443     1.9089776585    -0.3873705720
 H      4.9723969477     0.8468344764     0.2669332597
 F      5.5421791457     0.2103832547     0.6003505496
 H      3.0386314320    -2.4842253212    -3.0391421688
 F      2.3867385013    -2.1821465531    -3.6089430330
 H      2.3529332153    -0.5639949450    -4.0544098997
 F      2.4052930768     0.3437672470    -4.1732175074
          14
Energy: -53.347889199011206 Kcal/mole
 H      3.3551218272     1.2815023183    -3.1872303396
 F      3.5220050336     2.1016376340    -2.8125076963
 H      2.8387849383    -2.9376400942     0.1505276298
 F      2.3387864211    -3.1978330431    -0.5727911879
 H      4.1500585997    -1.4936084742     1.3161154441
 F      3.8134374724    -2.3458375591     1.3519037582
 H      3.3954973927     2.0171751978    -1.1660418540
 F      3.2910906862     1.7545802553    -0.2936702957
 H      4.2683397968     0.7259973610     0.5902331883
 F      4.7628630030     0.0695464879     0.9969370730
 H      1.6516353972    -2.0216885310    -1.4144054753
 F      1.3722158085    -1.2722214594    -1.8628614955
 H      2.3858932505    -0.6148392974    -2.9262560646
 F      2.9372618137    -0.2159192433    -3.5408652884
          14
Energy: -53.15213016338521 Kcal/mole
 H      4.4552527473     1.4523408161    -2.9272395928
 F      4.7329735534     2.1902090884    -2.4589335319
 H      2.1640988106    -2.8058722200    -0.0600144078
 F      1.8541784486    -3.0033447778    -0.9001590133
 H      3.5443320408    -1.5319225233     1.0363784016
 F      2.8901017144    -2.1397906416     1.2446283255
 H      4.2034042115     2.2052137533    -0.9392691747
 F      3.9740896758     2.0638296058    -0.0627337410
 H      4.3916423491     0.5137517597     0.2930666673
 F      4.6250088751    -0.3488725847     0.4987564946
 H      1.6825391782    -1.8091224015    -2.0698207938
 F      1.7568216200    -1.1494478003    -2.7024348462
 H      3.0724941921    -0.3066832988    -3.3012111526
 F      3.8787251238     0.0647135375    -3.5313091205
          14
Energy: -53.427248302302274 Kcal/mole
 H      3.7081607953     1.6453326749    -2.8950258694
 F      3.9942161868     2.2200412255    -2.2402194897
 H      2.8650344710    -3.2138595226    -0.4035769844
 F      2.4764524088    -3.3459955073    -1.2235971442
 H      4.1409429316    -2.1485744956     0.9250697750
 F      3.5408618854    -2.8351849569     1.0218055611
 H      4.3991603947     1.9399769628    -0.6419390550
 F      4.6096323954     1.6264135264     0.1936855666
 H      4.9384603132     0.0355942307     0.4742952053
 F      5.1208798004    -0.8630780110     0.4737184860
 H      1.9175513177    -2.0468910888    -2.0566952646
 F      1.7150671263    -1.2266900705    -2.4132894903
 H      2.5785333762    -0.1041336993    -3.4021129977
 F      3.0954016548     0.4616718076    -3.9057004388
          14
Energy: -53.2702846841443 Kcal/mole
 H      4.4713065043     0.9435761411    -2.1125226559
 F      5.3098190471     1.1153383770    -1.7834581488
 H      2.3974918758    -2.5799154970     0.1691680648
 F      2.0080765205    -2.8558426226    -0.6138446442
 H      4.0742295277    -1.7703369356     1.5015487108
 F      3.1834832301    -1.9876140891     1.4857160870
 H      5.6215866701     1.2393457429    -0.1237414745
 F      5.7513248836     1.1911669215     0.7827549662
 H      5.7654555402    -0.3901838499     1.3613178160
 F      5.6499787704    -1.2908365989     1.4892972730
 H      1.8693743546    -2.2801925303    -2.2111660947
 F      1.9951640477    -1.8575766205    -3.0151945432
 H      2.5678993094    -0.2655231214    -2.7383438014
 F      2.8313693916     0.5836938904    -2.5140605371
          14
Energy: -53.01216825938215 Kcal/mole
 H      4.7492923544     1.0925437148    -1.6029021520
 F      5.6441842977     1.2636855369    -1.4991337243
 H      1.5241670809    -2.4853334834     0.6916608736
 F      0.9118263379    -2.5794757150     0.0155950079
 H      3.6749040655    -1.9675649821     1.3431405291
 F      2.8155818571    -2.1131032917     1.6282246263
 H      6.2813496892     0.7753980499    -0.0574873131
 F      6.5749780418     0.3849730821     0.7185537522
 H      5.7725196730    -1.0165691092     0.9195061578
 F      5.1858489683    -1.7207576279     0.8907830949
 H      1.0952657130    -1.5339211963    -1.2659357644
 F      1.3189221764    -0.9275646637    -1.9164728824
 H      2.4942122642     0.0907198129    -1.6131161498
 F      3.1627187443     0.6608512269    -1.3505551914
          14
Energy: -53.48838884070662 Kcal/mole
 H      4.2381375031     2.2066711508    -0.8029634404
 F      5.0986365494     2.1503358490    -0.4911033354
 H      1.5666435900    -1.6588035345     0.9840182087
 F      0.9658593359    -1.0083370398     0.7456055008
 H      3.4926028517    -2.5502824701     0.5936701001
 F      2.7811635174    -2.7341137764     1.1422584015
 H      5.7722047087     0.8428596368     0.1963983329
 F      6.0766341069     0.0587772855     0.5616744037
 H      5.3303751378    -1.3740081858     0.0214895766
 F      4.7756190808    -2.0286463726    -0.3019042416
 H      0.9488876190    -0.3142573785    -0.7491929515
 F      1.1558500583     0.0631955713    -1.5588748763
 H      2.0658916660     1.4723431803    -1.4700411263
 F      2.6111323316     2.1751072023    -1.2470515617
          14
Energy: -53.384607256888444 Kcal/mole
 H      3.4615847499     1.9277586956    -1.4899175630
 F      4.3676003224     1.8366252633    -1.3816610164
 H      1.3287403390    -2.2660301817     0.3587618865
 F      0.6191808419    -1.6884859101     0.2966576647
 H      3.5910732784    -2.8192247324     0.0766407302
 F      2.7357359466    -3.1416696177     0.1495539992
 H      5.0893687601     0.9227526160    -0.1541205195
 F      5.2844186485     0.3212542228     0.5099910856
 H      5.2745614990    -1.3741158476     0.2411690314
 F      5.0908481386    -2.2059255980    -0.0982878000
 H      0.6232696369    -0.8956734217    -1.1185684560
 F      0.7848506334    -0.3954657367    -1.8699490876
 H      1.3543407946     1.1361378564    -1.6878554803
 F      1.7863942931     1.9344431560    -1.5577500496
          14
Energy: -53.538113486256194 Kcal/mole
 H      2.8181203602     0.9789009679    -1.8774537248
 F      3.6273911740     0.5480671199    -1.8962139280
 H      2.1005774398    -2.2627362217     1.0039171653
 F      1.7452846566    -1.5262993896     0.5888065409
 H      3.9000465138    -3.1243708545     1.3803837532
 F      3.0703379997    -3.3904714150     1.6661516193
 H      4.5182337795     0.3595959319    -0.4810661810
 F      5.0132241211     0.1657108043     0.2661166073
 H      5.1984475931    -1.4347791499     0.5847778947
 F      5.2069882540    -2.3441605799     0.7024276800
 H      0.5351336616    -1.0455875451    -0.4836882506
 F     -0.0192110872    -0.6487003937    -1.0969349290
 H      0.6820079585     0.7464878768    -1.6534315515
 F      1.2400085439     1.4553993262    -1.8176536678
          14
Energy: -53.435791193732115 Kcal/mole
 H      3.4079132367     1.6614071402    -1.7547474958
 F      4.3235978144     1.6587871631    -1.8037769748
 H      1.2626720242    -2.3232671436     1.5188329510
 F      0.4723000744    -1.9054647507     1.3147683987
 H      3.5808576776    -2.4368030462     1.4026621456
 F      2.8390813675    -2.8938764154     1.6885656975
 H      4.8579526262     1.2638382889    -0.3186245065
 F      5.1283580232     1.0204128369     0.5231082128
 H      4.9805791986    -0.6330426595     0.7760282503
 F      4.8822431341    -1.5441604057     0.8089443716
 H      0.5707204771    -1.2921765293    -0.2050108291
 F      0.7346240925    -0.8735946358    -1.0042691123
 H      1.3623750170     0.6160955647    -1.3200855345
 F      1.8028293185     1.4088963686    -1.4555694583
          14
Energy: -53.51192013762791 Kcal/mole
 H      2.7386496984     1.8179923389    -1.7243314698
 F      3.6532735043     1.7636955143    -1.6868594989
 H      0.7960526571    -1.3849131813     2.1002980103
 F      0.0942242657    -1.2057101143     1.5379705524
 H      2.9137477770    -1.6877545532     2.4837003164
 F      2.1345282616    -1.7731017526     2.9595383165
 H      4.4973130987     1.2384838667    -0.3079505995
 F      4.7903614325     0.8997107068     0.4922021485
 H      4.3557233439    -0.6650386806     1.0792327593
 F      4.0728567394    -1.4900531586     1.3624757561
 H      0.3380200825    -0.9658352135    -0.0865755024
 F      0.5811296302    -0.7467845419    -0.9431988450
 H      0.8165456458     0.8219117425    -1.4108001116
 F      1.0984400460     1.6494580868    -1.6875519773
          14
Energy: -53.45597764629926 Kcal/mole
 H      2.4988394571     2.1895339854    -1.4793371795
 F      3.4072995251     2.2136303647    -1.3568273046
 H      0.7247969180    -1.9311072484     1.3394561984
 F     -0.0570942523    -1.5511619657     1.0476055862
 H      2.9919039873    -2.3455490258     1.5265755082
 F      2.1648803937    -2.5777582461     1.8475114110
 H      3.9594238483     1.3919672206    -0.0341294491
 F      4.1604288499     0.8516697167     0.6790077023
 H      4.4254930399    -0.8642981931     0.8230808518
 F      4.3894395490    -1.7792608416     0.8724012081
 H      0.0077078176    -0.9334460905    -0.4509275276
 F      0.1547744240    -0.4739363385    -1.2307423781
 H      0.4908798672     1.0847108407    -1.3387078016
 F      0.8181970735     1.9393644195    -1.3963246970
          14
Energy: -53.55892371971079 Kcal/mole
 H      2.1043188601     1.8113276549    -1.6029305116
 F      2.9625362462     1.7599643929    -1.9218564175
 H      0.4540406458    -1.6086452186     1.4378691874
 F     -0.3795417052    -1.6388749064     1.0569287326
 H      2.8820103302    -1.5274605492     1.6701006180
 F      2.0603186908    -1.3229348751     2.0220680860
 H      4.1177707380     1.1127383627    -0.9509183354
 F      4.7241309953     0.6820891685    -0.4144879951
 H      4.5698480069    -0.8118817231     0.3746929366
 F      4.3533214193    -1.6014231745     0.7877662152
 H     -0.6296819856    -0.9086764784    -0.3743118782
 F     -0.6676570591    -0.4614028208    -1.1739325189
 H      0.0509091684     1.0084397288    -1.1310417167
 F      0.5491834423     1.7747792930    -1.0579977547
          14
Energy: -53.48273532106782 Kcal/mole
 H      1.8522339687     1.3762138085    -1.9942153457
 F      2.7455745932     1.1759658280    -2.0464865127
 H      0.5488995640    -1.6606231568     1.2464371389
 F     -0.1204771417    -1.0430360065     1.3532544483
 H      2.7268791265    -2.2721453830     1.0155239287
 F      1.8739839349    -2.5819167539     0.8832345115
 H      4.0439276114     0.8498359575    -0.9457365770
 F      4.7258777028     0.4860479169    -0.4522881661
 H      4.4845749263    -0.8155156382     0.5811206986
 F      4.2012665564    -1.4889892546     1.1352494342
 H     -0.8745543982    -0.5683903310    -0.0535007349
 F     -1.1120237735    -0.2878307474    -0.8936100230
 H     -0.3497934628     0.9976296004    -1.5422315235
 F      0.2159339429     1.6616273916    -1.8249830677
          14
Energy: -53.67604049851755 Kcal/mole
 H      1.7217483515     1.7471725347    -1.7205400998
 F      2.4651041115     1.5388657445    -2.2154335177
 H      0.2175303724    -2.1062487215     0.8060182855
 F     -0.5585469471    -1.7544116003     1.1448451356
 H      2.3839282986    -2.0673634335     0.5798033339
 F      1.6929852331    -2.5979470341     0.2935032763
 H      3.7735034019     0.6868714948    -1.5995660148
 F      4.3966485224     0.1762792478    -1.1615309522
 H      3.9092302036    -0.5449819210     0.1878132050
 F      3.5174997998    -0.9394637958     0.9170733378
 H     -1.2075636197    -0.5578286480     0.1511580888
 F     -1.3630398835     0.0843382568    -0.4847175263
 H     -0.2172809138     1.2665118157    -0.5658283970
 F      0.4390711845     1.9051287175    -0.6133612875
          14
Energy: -53.542034304562605 Kcal/mole
 H      1.6837025250     2.2103396456    -1.1613300651
 F      2.3525677409     2.0926511889    -1.7774938016
 H      0.3043678592    -1.9658920296     1.3339795872
 F     -0.4674349170    -1.4713430589     1.3088640492
 H      2.5697930692    -2.2049113423     1.0420035791
 F      1.8039709536    -2.6680964374     1.2416659317
 H      3.2559509949     0.6338444422    -1.7986161702