          14
Energy: -54.10831227980732 Kcal/mole
 H      0.2734914917     1.4484116746    -2.0360234940
 F      0.9715685002     1.8761091960    -1.6229226343
 H     -1.5163969480    -2.6131342935     1.0316816060
 F     -2.0817948152    -2.6411987206     0.3102755901
 H      0.3679189960    -1.9301451630     1.9849169092
 F     -0.4074650208    -2.3548388771     2.2284407803
 H      1.2182685962     1.6545977776    -5.23175E-500
 F      1.2939468576     1.4234141200     0.8840946822
 H      1.5736220002    -0.1638087034     1.2392263195
 F      1.6416682901    -1.0687734826     1.3707460935
 H     -2.4520434325    -1.1862969726    -0.3697584165
 F     -2.5518847143    -0.3445916910    -0.7196911776
 H     -1.6265058874     0.2475942707    -1.9698052358
 F     -1.0243542691     0.5743739451    -2.5793275676
