          14
Energy: -54.12098581287431 Kcal/mole
 H      0.8845519169     0.8844900139    -2.0722650906
 F      1.2151104993     1.6916427294    -1.7892023460
 H     -1.6628034029    -1.9879892619     1.4824146192
 F     -1.9888164312    -2.4513243885     0.7613563234
 H     -0.0966786262    -0.7415990585     2.4765347025
 F     -0.9587952536    -1.0179031556     2.6224797836
 H      1.4625664663     1.9605243443    -0.1733503860
 F      1.5483530989     1.9975125074     0.7388784940
 H      1.5068172900     0.5891780873     1.5990293433
 F      1.4034204881    -0.2281763606     2.0016828021
 H     -2.1280301794    -1.6279725567    -0.6629132481
 F     -2.1015299709    -1.1087362442    -1.4182809669
 H     -0.6283909694    -0.8069246088    -2.0989266233
 F      0.2227712182    -0.6049790351    -2.3739355607
