          14
Energy: -54.11282696864831 Kcal/mole
 H      0.9052585280     0.8670031703    -2.0797168018
 F      1.2497251338     1.6670326473    -1.7930382478
 H     -1.6370194252    -1.9991230395     1.4857795636
 F     -1.9643052733    -2.4520717485     0.7587235543
 H     -0.0931198933    -0.7572131741     2.4968212069
 F     -0.9530748900    -1.0398325733     2.6434250226
 H      1.4311035818     1.9521243506    -0.1715174641
 F      1.4896090726     1.9882693699     0.7429001894
 H      1.4896121866     0.5826974162     1.6000012596
 F      1.4012435297    -0.2317438181     2.0120272982
 H     -2.1044966852    -1.6142615596    -0.6503603091
 F     -2.0824039356    -1.0909203388    -1.4030321347
 H     -0.6257894319    -0.8009893396    -2.1193394491
 F      0.2215904671    -0.6060286004    -2.4105895426
          14
Energy: -54.111965150803954 Kcal/mole
 H      0.9004313619     0.8748279526    -2.0951598248
 F      1.2499812039     1.6666175607    -1.7922190311
 H     -1.6482960318    -1.9934518420     1.4872057991
 F     -1.9637070754    -2.4523725924     0.7586478958
 H     -0.0922517861    -0.7578380115     2.5007689207
 F     -0.9531209411    -1.0397994271     2.6432156055
 H      1.4533255703     1.9426641759    -0.1705625334
 F      1.5210676641     1.9945653991     0.7424578781
 H      1.4898418917     0.5860870300     1.6072932313
 F      1.4013752638    -0.2321392482     2.0117291512
 H     -2.1166594117    -1.6066309139    -0.6614249155
 F     -2.0994472042    -1.0703000207    -1.4050255562
 H     -0.6393164397    -0.7884260760    -2.1335228255
 F      0.2068493693    -0.5979612721    -2.4312065202
          14
Energy: -54.11336130456428 Kcal/mole
 H      0.9059631425     0.8717554083    -2.0934373085
 F      1.2496877557     1.6667805521    -1.7923104066
 H     -1.6414031443    -1.9890654116     1.4785808594
 F     -1.9525147248    -2.4436907323     0.7454953240
 H     -0.0957760748    -0.7482353833     2.4988776400
 F     -0.9529339858    -1.0403088243     2.6433159336
 H      1.4568261259     1.9544069149    -0.1704637859
 F      1.5190531530     1.9925803196     0.7436257000
 H      1.4972316883     0.5891746008     1.6121111333
 F      1.3991285656    -0.2240306194     2.0243756687
 H     -2.1118030747    -1.6054255702    -0.6604615218
 F     -2.0997048217    -1.0703639614    -1.4050766620
 H     -0.6391444509    -0.7800389988    -2.1301594236
 F      0.2054176917    -0.5892873471    -2.4321819304
          14
Energy: -54.11260838314658 Kcal/mole
 H      0.9332983831     0.8700746701    -2.1003347292
 F      1.2914166015     1.6565220838    -1.7935109897
 H     -1.6372465876    -1.9909819609     1.4779901295
 F     -1.9527352205    -2.4435890638     0.7455266609
 H     -0.0934741718    -0.7526927567     2.5037012620
 F     -0.9530560964    -1.0400723710     2.6430600516
 H      1.4763748585     1.9456405871    -0.1711638112
 F      1.5180161379     1.9930453530     0.7436628347
 H      1.4835502305     0.5995484320     1.6279886195
 F      1.3987865066    -0.2173811037     2.0358246709
 H     -2.1057423386    -1.5971081118    -0.6634833431
 F     -2.0974694800    -1.0607573231    -1.4072228077
 H     -0.6390717797    -0.7768288325    -2.1279551741
 F      0.2054138367    -0.5894576390    -2.4322988608
          14
Energy: -54.11257372953287 Kcal/mole
 H      0.9256728097     0.8676346900    -2.0846479065
 F      1.2918211206     1.6566515191    -1.7943431394
 H     -1.6274983244    -1.9907512409     1.4849648125
 F     -1.9408746749    -2.4408069618     0.7500266443
 H     -0.0908172887    -0.7584439684     2.5153222527
 F     -0.9492886925    -1.0462241382     2.6605752139
 H      1.4795969525     1.9451644297    -0.1712796880
 F      1.5178452133     1.9930706121     0.7436689817
 H      1.4969424747     0.5954736331     1.6228963330
 F      1.3980760790    -0.2171649450     2.0360948049
 H     -2.1015858327    -1.5910672273    -0.6591321685
 F     -2.0976899731    -1.0610777781    -1.4074536275
 H     -0.6394729062    -0.7809733211    -2.1248112327
 F      0.2120723773    -0.5925218441    -2.4080879013
          14
Energy: -54.11289278495947 Kcal/mole
 H      0.9279832034     0.8711442123    -2.0968005248
 F      1.2916985595     1.6564653471    -1.7936984711
 H     -1.6273381364    -1.9905372572     1.4847653913
 F     -1.9408831725    -2.4408183131     0.7500372231
 H     -0.0935866861    -0.7511474261     2.5136417960
 F     -0.9491417824    -1.0466112029     2.6606643583
 H      1.4543422102     1.9430546134    -0.1693591183
 F      1.5003049992     1.9943668931     0.7450496918
 H      1.4915223748     0.5969002628     1.6244483146
 F      1.3983636028    -0.2172406244     2.0360124759
 H     -2.1112078946    -1.5924362805    -0.6602191702
 F     -2.0971795449    -1.0610051530    -1.4073959646
 H     -0.6389198902    -0.7747058531    -2.1191132912
 F      0.2120430411    -0.5928543188    -2.4083901639
          14
Energy: -54.10905207448582 Kcal/mole
 H      0.9427087099     0.8663566447    -2.0870739362
 F      1.3065143537     1.6573665963    -1.7992585266
 H     -1.6304280388    -1.9952290425     1.4889243729
 F     -1.9407192603    -2.4405694247     0.7498165988
 H     -0.0902542940    -0.7605537731     2.5298323605
 F     -0.9478194274    -1.0542968567     2.6683460524
 H      1.4628643992     1.9542191156    -0.1702998839
 F      1.4998529167     1.9937746420     0.7450995972
 H      1.4760285243     0.5939393452     1.6155047187
 F      1.3991855157    -0.2170835546     2.0364869130
 H     -2.1074672398    -1.5877631738    -0.6568583899
 F     -2.0973779780    -1.0612530505    -1.4075742462
 H     -0.6344529278    -0.7804041948    -2.1098081073
 F      0.2118060790    -0.5925520350    -2.4088837824
          14
Energy: -54.114377611969644 Kcal/mole
 H      0.9358780578     0.8556047247    -2.0766216945
 F      1.2898644230     1.6511520072    -1.7890679177
 H     -1.6281401025    -1.9924940479     1.4863019601
 F     -1.9408406301    -2.4407145099     0.7499557117
 H     -0.0901541332    -0.7636517423     2.5240464500
 F     -0.9478247407    -1.0541325166     2.6686529816
 H      1.4609650294     1.9414601248    -0.1695757925
 F      1.4999536739     1.9944514770     0.7450611858
 H      1.4811892473     0.5977552948     1.6239386383
 F      1.3989117513    -0.2172859819     2.0360395131
 H     -2.1155815086    -1.5946216712    -0.6618744251
 F     -2.0969475348    -1.0608892230    -1.4073081571
 H     -0.6275791179    -0.7958093050    -2.1023082229
 F      0.2244412039    -0.6082237032    -2.3847299169
          14
Energy: -54.10857133997415 Kcal/mole
 H      0.9413161820     0.8521799620    -2.0718851453
 F      1.2957093333     1.6481032173    -1.7858769879
 H     -1.6274551249    -1.9891818257     1.4888508844
 F     -1.9380874407    -2.4359207705     0.7507310571
 H     -0.0888528471    -0.7685947136     2.5219463719
 F     -0.9478937709    -1.0538703033     2.6687643859
 H      1.4681683854     1.9482710179    -0.1702206425
 F      1.4995715525     1.9940901749     0.7450953936
 H      1.4824293770     0.5961797846     1.6210857711
 F      1.3988459653    -0.2172024047     2.0361908511
 H     -2.1072090066    -1.5868598539    -0.6562222842
 F     -2.0973916767    -1.0613009695    -1.4076079901
 H     -0.6281296109    -0.7804399904    -2.0943205080
 F      0.2244704063    -0.6090390099    -2.3851536467
          14
Energy: -54.11064313140599 Kcal/mole
 H      0.9408578409     0.8527453716    -2.0728878489
 F      1.2957336472     1.6480732236    -1.7858237968
 H     -1.6219716473    -1.9948836051     1.4899486437
 F     -1.9383783265    -2.4356183043     0.7506728235
 H     -0.0934359626    -0.7515983970     2.5294693469
 F     -0.9476506472    -1.0547719187     2.6683653094
 H      1.4604817897     1.9379376101    -0.1693438009
 F      1.4999793087     1.9946383383     0.7450488792
 H      1.4831005938     0.5999702348     1.6287412962
 F      1.3988103588    -0.2174034794     2.0357847432
 H     -2.1053400642    -1.5875621235    -0.6566920176
 F     -2.0974908198    -1.0612637157    -1.4075830719
 H     -0.6308513611    -0.7869272667    -2.1064800500
 F      0.2246147888    -0.6086948748    -2.3845086111
          14
Energy: -54.11252674108056 Kcal/mole
 H      0.9346347553     0.8537025656    -2.0677250758
 F      1.2960637675     1.6480224467    -1.7860976700
 H     -1.6309906282    -1.9904767837     1.4907437951
 F     -1.9584022320    -2.4304421720     0.7558144797
 H     -0.0832277882    -0.7597365468     2.5301601422
 F     -0.9357650098    -1.0655661957     2.6734692897
 H      1.4613840917     1.9397496761    -0.1694927685
 F      1.4999314436     1.9945422124     0.7450567816
 H      1.4874648882     0.6022616532     1.6336226512
 F      1.4015735706    -0.2107795740     2.0489245226
 H     -2.1160875829    -1.5829812420    -0.6586872205
 F     -2.1046476995    -1.0544630136    -1.4079712863
 H     -0.6293019196    -0.7857954674    -2.1010498387
 F      0.2245325945    -0.6087549142    -2.3847966713
          14
Energy: -54.11011474653462 Kcal/mole
 H      0.9472495318     0.8523592776    -2.0795627947
 F      1.2953945828     1.6480937050    -1.7854697064
 H     -1.6363538800    -1.9946819442     1.4956003728
 F     -1.9581177239    -2.4302190980     0.7555568494
 H     -0.0864579186    -0.7657326942     2.5234429927
 F     -0.9425106692    -1.0626116578     2.6646009509
 H      1.4688879583     1.9456949701    -0.1586261732
 F      1.5155705914     2.0010566075     0.7555099331
 H      1.4852704904     0.6026845483     1.6340032353
 F      1.4016899784    -0.2108020076     2.0489043335
 H     -2.1184724108    -1.5843989516    -0.6597298059
 F     -2.1045211899    -1.0543878073    -1.4079159795
 H     -0.6292317437    -0.7863984797    -2.1012156468
 F      0.2245288719    -0.6087229258    -2.3847878755
          14
Energy: -54.10730278652211 Kcal/mole
 H      0.9280469314     0.8607692377    -2.0719754884
 F      1.2832084184     1.6505469144    -1.7703125315
 H     -1.6362484735    -1.9875717009     1.4913209513
 F     -1.9581233155    -2.4305962799     0.7557838629
 H     -0.0877492113    -0.7612906063     2.5250437841
 F     -0.9424421691    -1.0628473003     2.6645160326
 H      1.4679150333     1.9449115116    -0.1585281365
 F      1.5156222028     2.0010981681     0.7555047325
 H      1.4873243118     0.6056041984     1.6402064616
 F      1.4015810279    -0.2109568883     2.0485752667
 H     -2.1221413830    -1.5872952592    -0.6618685449
 F     -2.1043265594    -1.0542341649    -1.4078025244
 H     -0.6298459662    -0.7921152847    -2.1067654104
 F      0.2245614550    -0.6084196625    -2.3844934734
          14
Energy: -54.109623827032735 Kcal/mole
 H      0.9225975341     0.8572270533    -2.0610335700
 F      1.2712207264     1.6519737834    -1.7648435890
 H     -1.6246117279    -1.9861649172     1.4851576542
 F     -1.9365975524    -2.4338115497     0.7481594604
 H     -0.0923553771    -0.7611838964     2.5226043401
 F     -0.9464203940    -1.0596735053     2.6721566726
 H      1.4666535815     1.9554563583    -0.1454314219
 F      1.5238275895     2.0084773827     0.7682473530
 H      1.4908594060     0.6065454509     1.6279797568
 F      1.3998713747    -0.2078121001     2.0396008900
 H     -2.1196170166    -1.5865173259    -0.6612575167
 F     -2.1044604712    -1.0542754325    -1.4078349380
 H     -0.6311776967    -0.7832524707    -2.1051574834
 F      0.2246321002    -0.6088898143    -2.3845787702
          14
Energy: -54.10966609405523 Kcal/mole
 H      0.9250645474     0.8567487389    -2.0626380765
 F      1.2710898571     1.6519991569    -1.7647584737
 H     -1.6311738776    -1.9919888954     1.4848335236
 F     -1.9442147739    -2.4364445807     0.7463529612
 H     -0.0915488308    -0.7607690287     2.5281495567
 F     -0.9464631795    -1.0596955130     2.6718625117
 H      1.4684966443     1.9552375648    -0.1455320652
 F      1.5237298193     2.0084889892     0.7682526919
 H      1.4934365031     0.6052803601     1.6260617919
 F      1.3997346657    -0.2077449899     2.0397026336
 H     -2.1172956747    -1.5718165940    -0.6520544783
 F     -2.1012354777    -1.0443683382    -1.4020074152
 H     -0.6300679861    -0.7867212109    -2.1039509453
 F      0.2245732326    -0.6087058056    -2.3846427743
          14
Energy: -54.10468918866928 Kcal/mole
 H      0.9255243838     0.8526672314    -2.0520477566
 F      1.2710654638     1.6522156714    -1.7653202657
 H     -1.6213516963    -1.9965490368     1.4864725826
 F     -1.9272305373    -2.4368204685     0.7425047063
 H     -0.0907275419    -0.7605495265     2.5336034029
 F     -0.9465067469    -1.0597071571     2.6715731978
 H      1.4600127095     1.9519357660    -0.1447787623
 F      1.5241798724     2.0086641420     0.7682127309
 H      1.4922262504     0.6104406745     1.6283680417
 F      1.3973418361    -0.2000709409     2.0466465005
 H     -2.1066867325    -1.5784082201    -0.6565871826
 F     -2.1017982575    -1.0440186676    -1.4017669657
 H     -0.6321983772    -0.7750610096    -2.1033068902
 F      0.2246862449    -0.6093243524    -2.3846769399
          14
Energy: -54.102791103995 Kcal/mole
 H      0.9174234115     0.8568609446    -2.0538208313
 F      1.2714952017     1.6519932046    -1.7652262082
 H     -1.6393286025    -1.9906398871     1.4896619162
 F     -1.9547556253    -2.4261783518     0.7468961125
 H     -0.0894521665    -0.7665384759     2.5287609518
 F     -0.9465744026    -1.0593894572     2.6718300786
 H      1.4659480922     1.9610472552    -0.1464994281
 F      1.5275329756     2.0230375217     0.7663277784
 H      1.4891855044     0.6169486583     1.6405404579
 F      1.3975031407    -0.2004161744     2.0460007820
 H     -2.1110816316    -1.5753596836    -0.6544532534
 F     -2.1015651183    -1.0441803854    -1.4018801657
 H     -0.6358309956    -0.7797593156    -2.1175846018
 F      0.2248789469    -0.6090751181    -2.3839195403
          14
Energy: -54.11066346485771 Kcal/mole
 H      0.9265089653     0.8544989551    -2.0582632312
 F      1.2710132340     1.6521185027    -1.7649905491
 H     -1.6549407333    -1.9824185151     1.4877322653
 F     -1.9828679952    -2.4293942174     0.7572766319
 H     -0.0871103730    -0.7530269029     2.4964767544
 F     -0.9423886592    -1.0482746685     2.6455297988
 H      1.4617436778     1.9563950175    -0.1510855783
 F      1.5223295198     2.0195846887     0.7617262431
 H      1.5026962005     0.6222049630     1.6403814351
 F      1.4057999791    -0.1930984192     2.0487691398
 H     -2.1295293521    -1.5758959723    -0.6553097209
 F     -2.1005865094    -1.0441519366    -1.4018347321
 H     -0.6311663547    -0.7783404412    -2.1021204186
 F      0.2246314985    -0.6091503861    -2.3847398795
          14
Energy: -54.11406325372546 Kcal/mole
 H      0.9227863991     0.8560079169    -2.0579651998
 F      1.2712107076     1.6520384558    -1.7650063590
 H     -1.6473720265    -1.9833726579     1.4848704072
 F     -1.9832694976    -2.4293436023     0.7574284468
 H     -0.0847761508    -0.7571222326     2.5019426096
 F     -0.9425124843    -1.0480574207     2.6452398478
 H      1.4576485939     1.9586947711    -0.1491347423
 F      1.5064276828     2.0153827213     0.7648105935
 H      1.4884941420     0.6138164433     1.6398154823
 F      1.4035076029    -0.2026206361     2.0485902169
 H     -2.1266031489    -1.5770580407    -0.6560313631
 F     -2.1007417377    -1.0440902915    -1.4017964506
 H     -0.6297220448    -0.7898177760    -2.1048813183
 F      0.2245548812    -0.6085415400    -2.3845934201
          14
Energy: -54.110711202664206 Kcal/mole
 H      0.9170220713     0.8570651530    -2.0538906875
 F      1.2715164918     1.6519823718    -1.7652225025
 H     -1.6432098667    -1.9807719101     1.4813275701
 F     -1.9834902905    -2.4294815660     0.7576163861
 H     -0.0859389805    -0.7509588270     2.5077648572
 F     -0.9424507989    -1.0483843752     2.6449309910
 H      1.4588089662     1.9639594822    -0.1495063971
 F      1.5063661277     2.0151034405     0.7648303089
 H      1.4889194913     0.6169476743     1.6326818680
 F      1.4037422109    -0.1996803363     2.0410352971
 H     -2.1336953921    -1.5826729225    -0.6542288347
 F     -2.1067744652    -1.0569284329    -1.4050663640
 H     -0.6293660338    -0.7957570841    -2.1077250327
 F      0.2245359957    -0.6082264734    -2.3844425677
          14
Energy: -54.11027428204153 Kcal/mole
 H      0.9227817493     0.8526400518    -2.0486315159
 F      1.2712109542     1.6522171132    -1.7655014893
 H     -1.6549501433    -1.9849002271     1.4892489853
 F     -1.9828674960    -2.4292625683     0.7571961734
 H     -0.0825974144    -0.7600291981     2.5093309822
 F     -0.9426280612    -1.0479032129     2.6448479117
 H      1.4564341489     1.9602288548    -0.1491628714
 F      1.5064921063     2.0153013417     0.7648120857
 H      1.4908406142     0.6140936516     1.6274259749
 F      1.4036402997    -0.1995289370     2.0413141101
 H     -2.1319222777    -1.5822410821    -0.6538653094
 F     -2.1068685248    -1.0569513411    -1.4050856482
 H     -0.6379069757    -0.7984401665    -2.0969477635
 F      0.2188401556    -0.6167231885    -2.3687055470
          14
Energy: -54.10517813415106 Kcal/mole
 H      0.9144181284     0.8569396876    -2.0503116975
 F      1.2716546250     1.6519890275    -1.7654123596
 H     -1.6543920838    -2.0050708760     1.4880920460
 F     -2.0030878924    -2.4456159871     0.7633712459
 H     -0.0903733201    -0.7411003905     2.5020269052
 F     -0.9422155674    -1.0489073424     2.6452353761
 H      1.4652050208     1.9611810623    -0.1477559971
 F      1.5033910186     2.0180379963     0.7666826934
 H      1.4906426156     0.6161932843     1.6315389018
 F      1.4036508031    -0.1996403177     2.0410959289
 H     -2.1337745547    -1.5946069000    -0.6515067826
 F     -2.1055792991    -1.0652460666    -1.3997521539
 H     -0.6366446673    -0.7942995222    -2.0903208497
 F      0.2187731931    -0.6169428401    -2.3690570895
          14
Energy: -54.11274602815537 Kcal/mole
 H      0.9200597066     0.8563641164    -2.0556670529
 F      1.2713553523     1.6520195602    -1.7651282704
 H     -1.6622353013    -1.9977640594     1.4873401931
 F     -2.0026718279    -2.4460035968     0.7634111299
 H     -0.0865831887    -0.7504386924     2.5049040880
 F     -0.9424166251    -1.0484119671     2.6450827482
 H      1.4516460916     1.9562066392    -0.1467598215
 F      1.5041102885     2.0183018780     0.7666298486
 H      1.4937060890     0.6186246863     1.6370922392
 F      1.4034882929    -0.1997692980     2.0408013371
 H     -2.1366454851    -1.5926737667    -0.6502568604
 F     -2.1054270029    -1.0653486148    -1.3998184594
 H     -0.6374161147    -0.7971498683    -2.0902019609
 F      0.2180336186    -0.6174248936    -2.3673187005
          14
Energy: -54.10876502369075 Kcal/mole
 H      0.9229190029     0.8531349276    -2.0501929608
 F      1.2712036732     1.6521908612    -1.7654186583
 H     -1.6696713306    -1.9989841055     1.4915383826
 F     -2.0022773637    -2.4459388762     0.7631884257
 H     -0.0885181997    -0.7474810578     2.4995325039
 F     -0.9423139772    -1.0485688628     2.6453676983
 H      1.4641526106     1.9592128462    -0.1552904529
 F      1.5303996919     2.0237742682     0.7570319391
 H      1.4905962698     0.6256121366     1.6236727383
 F      1.3984765476    -0.1866026686     2.0392567455
 H     -2.1344868384    -1.5957962907    -0.6523769658
 F     -2.1055415141    -1.0651829721    -1.3997059927
 H     -0.6377807405    -0.7966966580    -2.0910355804
 F      0.2180529611    -0.6174489353    -2.3672744789
          14
Energy: -54.112009785695975 Kcal/mole
 H      0.9274609882     0.8507939452    -2.0491289054
 F      1.2709627314     1.6523150449    -1.7654751040
 H     -1.6663949629    -1.9953769701     1.4878014128
 F     -2.0024511674    -2.4461302264     0.7633866633
 H     -0.0852881526    -0.7579405719     2.4972990965
 F     -0.9424853238    -1.0480140097     2.6454861754
 H      1.4564695422     1.9711141276    -0.1501782795
 F      1.5218772403     2.0251444150     0.7628888380
 H      1.5004817942     0.6162301792     1.6238636690
 F      1.4061787853    -0.2036689492     2.0235652599
 H     -2.1429841928    -1.6121277553    -0.6555934764
 F     -2.1122248271    -1.0891341765    -1.4082026564
 H     -0.6357199832    -0.8097915211    -2.0934945548
 F      0.2179436427    -0.6167542831    -2.3671440360
          14
Energy: -54.110825107304734 Kcal/mole
 H      0.8994754719     0.8630893087    -2.0512849110
 F      1.2372407362     1.6669320825    -1.7673123397
 H     -1.6623594242    -1.9934300037     1.4889550087
 F     -1.9978716768    -2.4378857534     0.7604087747
 H     -0.0888510134    -0.7475853098     2.4973858777
 F     -0.9422963222    -1.0485633324     2.6454815719
 H      1.4432010383     1.9759816507    -0.1494002882
 F      1.5225811037     2.0248862042     0.7628475673
 H      1.4896676224     0.6206150032     1.6196240975
 F      1.4018973598    -0.1973419360     2.0247559607
 H     -2.1292776523    -1.6106949973    -0.6575805600
 F     -2.1066444598    -1.0951778248    -1.4156166959
 H     -0.6355914185    -0.8072769671    -2.0913408021
 F      0.2179368226    -0.6168876744    -2.3672582876
          14
Energy: -54.11179126359528 Kcal/mole
 H      0.8930375381     0.8650724692    -2.0491485860
 F      1.2375822537     1.6668268804    -1.7674256668
 H     -1.6655378490    -1.9897685315     1.4881675963
 F     -1.9977030687    -2.4380799860     0.7604505451
 H     -0.0866422024    -0.7546245639     2.4960090340
 F     -0.9424134946    -1.0481899163     2.6455546102
 H      1.4499999617     1.9759034513    -0.1499608455
 F      1.5222204366     2.0248903525     0.7628773036
 H      1.4932593353     0.6199168229     1.6190104984
 F      1.4017068278    -0.1973048992     2.0247885107
 H     -2.1343743700    -1.6159725952    -0.6613692284
 F     -2.1063740907    -1.0948978604    -1.4154157158
 H     -0.6332160976    -0.8108640515    -2.0865472783
 F      0.2178108173    -0.6166973878    -2.3675125729
          14
Energy: -54.11014537732429 Kcal/mole
 H      0.9033128970     0.8618282527    -2.0522476075
 F      1.2370371696     1.6669989786    -1.7672612709
 H     -1.6605321600    -1.9901270501     1.4860822553
 F     -1.9979686090    -2.4380609674     0.7605611677
 H     -0.0892896007    -0.7475939423     2.4948641370
 F     -0.9422730562    -1.0485628745     2.6456153444
 H      1.4565329996     1.9783602438    -0.1505812367
 F      1.5218738740     2.0247600253     0.7629102139
 H      1.5007773861     0.6204278083     1.6218197617
 F      1.4013080125    -0.1973320058     2.0246394858
 H     -2.1420825905    -1.6103550189    -0.6578456951
 F     -2.1059651874    -1.0951958598    -1.4156026311
 H     -0.6350756288    -0.8064399029    -2.0891784230
 F      0.2179094612    -0.6169320787    -2.3673729968
          14
Energy: -54.111555583684606 Kcal/mole
 H      0.9051190280     0.8614157325    -2.0531891494
 F      1.2369413586     1.6670208618    -1.7672113243
 H     -1.6580022417    -1.9960539680     1.4883237631
 F     -1.9970255262    -2.4419834061     0.7623078206
 H     -0.0894666570    -0.7445641853     2.5000367245
 F     -0.9422636638    -1.0487235961     2.6453409506
 H      1.4615958547     1.9669292168    -0.1502726054
 F      1.5216053012     2.0253664149     0.7628938417
 H      1.4891076993     0.6221795455     1.6226772906
 F      1.4019270625    -0.1974249314     2.0245939959
 H     -2.1341138541    -1.6119253866    -0.6585796983
 F     -2.1063879105    -1.0951125555    -1.4155636939
 H     -0.6342716767    -0.8087501540    -2.0882999313
 F      0.2178668134    -0.6168095252    -2.3674195987
          14
Energy: -54.1122522245126 Kcal/mole
 H      0.8987488775     0.8625519383    -2.0488873689
 F      1.2372792803     1.6669605887    -1.7674395238
 H     -1.6655234381    -2.0051035368     1.4919044356
 F     -1.9971658046    -2.4546824250     0.7647310285
 H     -0.0833826743    -0.7616663640     2.5011430054
 F     -0.9425864050    -1.0478163651     2.6452822649
 H      1.4520366790     1.9712255335    -0.1498559246
 F      1.5221123934     2.0251385052     0.7628717378
 H      1.4902560889     0.6105893482     1.6222448576
 F      1.3991917415    -0.2142480522     2.0124237238
 H     -2.1400529756    -1.6187641186    -0.6542715361
 F     -2.1114471864    -1.0937000742    -1.4055227977
 H     -0.6344473965    -0.8092486234    -2.0891811667
 F      0.2178761349    -0.6167830826    -2.3673728512
          14
Energy: -54.11111761319371 Kcal/mole
 H      0.8978874309     0.8636361684    -2.0509385951
 F      1.2373249781     1.6669030728    -1.7673307110
 H     -1.6640646816    -2.0071562111     1.4925033654
 F     -1.9972431882    -2.4545735353     0.7646992566
 H     -0.0844626282    -0.7595726226     2.4989006830
 F     -0.9425291159    -1.0479274332     2.6454012149
 H      1.4462863829     1.9650006770    -0.1525666144
 F      1.5212371016     2.0213452786     0.7596267180
 H      1.4925026125     0.6081493476     1.6176543014
 F      1.3990725686    -0.2141186158     2.0126672422
 H     -2.1328896632    -1.6115439842    -0.6490441344
 F     -2.1118271835    -1.0940830856    -1.4058000993
 H     -0.6329419252    -0.8087373780    -2.0905359763
 F      0.2185806201    -0.6137469516    -2.3694214160
          14
Energy: -54.11364410707091 Kcal/mole
 H      0.8763057986     0.8751203930    -2.0572968808
 F      1.2181231856     1.6773612048    -1.7736429476
 H     -1.6624855401    -2.0001700882     1.4874300070
 F     -1.9973269580    -2.4549441330     0.7649683866
 H     -0.0821056348    -0.7541385165     2.4822203840
 F     -0.9371714760    -1.0469620742     2.6371583436
 H      1.4460510076     1.9721533402    -0.1529594311
 F      1.5212495877     2.0209658463     0.7596475560
 H      1.4941211381     0.6099815728     1.6129801439
 F      1.4067915514    -0.2136379417     2.0065705893
 H     -2.1419284741    -1.6211564207    -0.6560236045
 F     -2.1113476955    -1.0935731681    -1.4054298545
 H     -0.6357432381    -0.8039775512    -2.0918011067
 F      0.2137079611    -0.6078878076    -2.3761784487
          14
Energy: -54.11192590169412 Kcal/mole
 H      0.8842449344     0.8757973729    -2.0684306562
 F      1.2177020328     1.6773252926    -1.7730523266
 H     -1.6563274277    -2.0008590279     1.4849771932
 F     -1.9976536317    -2.4549075864     0.7650985027
 H     -0.0812349363    -0.7510776599     2.4932588913
 F     -0.9372176645    -1.0471244455     2.6365727763
 H      1.4515805912     1.9674408338    -0.1537125499
 F      1.5205900860     2.0143713792     0.7594819603
 H      1.5002930927     0.6065667229     1.6073132449
 F      1.4064641435    -0.2134567918     2.0068712052
 H     -2.1399568056    -1.6186234161    -0.6541695621
 F     -2.1114522880    -1.0937075381    -1.4055282072
 H     -0.6362504846    -0.8088622238    -2.0967749179
 F      0.2137348693    -0.6076286870    -2.3759145995
          14
Energy: -54.10862988812865 Kcal/mole
 H      0.8870476894     0.8746103714    -2.0683572010
 F      1.2175533531     1.6773882603    -1.7730562232
 H     -1.6716269509    -1.9997246274     1.4913143532
 F     -1.9968420273    -2.4549677637     0.7647623310
 H     -0.0785615403    -0.7610628963     2.4890571984
 F     -0.9373594820    -1.0465947518     2.6367956664
 H      1.4422427514     1.9647630710    -0.1528144072
 F      1.5210854368     2.0145134283     0.7594343159
 H      1.5015467638     0.6073625325     1.6092487505
 F      1.4063976391    -0.2134990076     2.0067685311
 H     -2.1379293468    -1.6126230366    -0.6499412868
 F     -2.1115598400    -1.0940258444    -1.4057525074
 H     -0.6330672624    -0.8107260365    -2.0943501538
 F      0.2206121634    -0.6169828482    -2.3674508953
          14
Energy: -54.109860748023024 Kcal/mole
 H      0.8945982344     0.8663411433    -2.0537224881
 F      1.2171528141     1.6778269237    -1.7738325609
 H     -1.6593523568    -2.0006229244     1.4862546012
 F     -1.9974931662    -2.4549201111     0.7650307391
 H     -0.0879378111    -0.7756141917     2.4909565273
 F     -0.9448859862    -1.0647566141     2.6423681674
 H      1.4536442713     1.9732674187    -0.1541458006
 F      1.5204806126     2.0140622923     0.7595049433
 H      1.4949981042     0.6019245350     1.6232890213
 F      1.4040158945    -0.2208119323     2.0178976159
 H     -2.1401039973    -1.6209974973    -0.6558396516
 F     -2.1114444798    -1.0935815986    -1.4054396128
 H     -0.6332012684    -0.8039819490    -2.0901070811
 F      0.2206192721    -0.6173406065    -2.3676759805
          14
Energy: -54.115907732822905 Kcal/mole
 H      0.8885211083     0.8700811252    -2.0574405518
 F      1.2174751916     1.6776285263    -1.7736353262
 H     -1.6591530708    -2.0004617082     1.4860595419
 F     -1.9975037378    -2.4549286633     0.7650410866
 H     -0.0833173112    -0.7617714563     2.4882339383
 F     -0.9409992360    -1.0519051512     2.6334687652
 H      1.4452914737     1.9688307279    -0.1532846898
 F      1.5209237092     2.0142976485     0.7594592634
 H      1.5064948415     0.5957034001     1.6080189312
 F      1.4108591326    -0.2250656906     2.0056128332
 H     -2.1384293812    -1.6208884828    -0.6523692392
 F     -2.1081362549    -1.0932848862    -1.4017728497
 H     -0.6339022454    -0.8083297187    -2.0952742736
 F      0.2206564573    -0.6171099674    -2.3674018729
          14
Energy: -54.1151938039382 Kcal/mole
 H      0.8850185781     0.8727479805    -2.0609108738
 F      1.2176609928     1.6774870558    -1.7734512336
 H     -1.6598983306    -2.0024083244     1.4876312681
 F     -1.9974642035    -2.4548253998     0.7649577101
 H     -0.0834756292    -0.7646855468     2.4816648732
 F     -0.9409908376    -1.0517505654     2.6338172390
 H      1.4461720488     1.9677210087    -0.1533012197