          3
Energy: -0.059999848312813436 Kcal/mole
 He     0.9996732368    -6.8967652432    -3.1418781566
 He     2.6748873625    -5.0075197375    -1.7795421969
 He    -0.0255196227    -4.3068213887    -2.4545405454
