          3
Energy: -0.0599995746406424 Kcal/mole
 He    -1.0490784124     4.7063150005    -2.6561365166
 He    -3.8156262528     3.9505508149    -2.6591354947
 He    -2.0631892465     2.9656798634    -0.6145333138
