          3
Energy: -0.05999648504795119 Kcal/mole
 He    -1.8519113327    -1.9677895032     0.9035985982
 He    -2.7447333901    -2.3937868368     3.5968652716
 He    -4.6089056078    -2.5536689813     1.4298670655
