          3
Energy: -6.433667853045129E-4 Kcal/mole
 He     1.7379266319     1.1745494824    -0.1551350580
 He    -2.5846905731    -1.5560362563     4.1515115287
 He    -4.5316837054     3.9410249206     0.1863333377
