          3
Energy: -0.059998881796319375 Kcal/mole
 He     6.2773967357    -2.8032126140    -3.4870498278
 He     3.9478366535    -2.5901910463    -1.8305316660
 He     3.6730182160    -2.7184383865    -4.6858140862
