          4
Energy: -0.11997409143636314 Kcal/mole
 He    -0.6991602924     3.6120510183     2.7852943895
 He    -3.1401346100     2.4753425141     3.7676143847
 He    -1.8977251346     1.4090622678     1.3966765061
 He    -0.6969432627     0.9837428797     3.9607309668
