          4
Energy: -0.11994953409600055 Kcal/mole
 He     2.7878684811    -2.2252571963    -1.7357181791
 He     0.0063780231    -1.6519727145    -2.2330313084
 He     1.5552534108    -3.0531881068    -4.1930261397
 He     0.8679986204    -4.3502474577    -1.7479518719
