          4
Energy: -0.11997873051580246 Kcal/mole
 He     0.2795199459     1.5339298051    -2.9659834519
 He    -2.5424566472     1.5977902693    -3.4575606936
 He    -1.2544980630    -0.8961213623    -2.9047570230
 He    -1.5624101777     1.0442502034    -0.8257823175
