          4
Energy: -5.825004154329802E-4 Kcal/mole
 He    -3.3871269641     2.6476037665     4.9191926942
 He     4.9731362281    -3.2058641065     2.9355195744
 He     1.6613146651    -3.2522429210    -4.7494919916
 He    -2.1997089772     1.3204286284    -1.6030300175
