          4
Energy: -0.002304336037927045 Kcal/mole
 He    -1.8498365639     2.8703549831     4.0395316939
 He     1.2689070992     6.3791995216    -5.3181100693
 He     2.5753657418     2.7283431315     6.3205294672
 He     5.2450366754     3.3277102358     1.3522218366
          4
Energy: -0.0016125993208361991 Kcal/mole
 He     6.4056022176     3.1684217399    -3.3510730169
 He    -4.9351363141     6.8711040726    -2.9336105604
 He     2.2872405614    -6.0734431511     0.9268280200
 He     3.4330900166     0.1176880683    -5.8127733400
          4
Energy: -0.0038667445158365407 Kcal/mole
 He     2.1864999907    -2.1815974828     5.9209372379
 He    -0.9641437384     0.3363637221     1.3658287244
 He     2.8009167887    -1.7344891706    -4.4347564664
 He    -3.9542092964     0.6875846661     4.5448461345
          4
Energy: -0.006253265673775887 Kcal/mole
 He    -2.8705394821    -0.2327984319     6.6273062978
 He     6.5878204663    -4.3382081406     1.7393684006
 He     2.8461349071    -5.2673642686     1.8901660272
 He    -6.7397984735    -6.4177193496    -6.0612688857
          4
Energy: -0.005225813894119744 Kcal/mole
 He     4.2152971068     4.5293530402     1.5432815855
 He    -2.1394905948     0.4646909381     2.5555774154
 He     1.6590439620    -2.3405808679     1.3975496649
 He     5.9167498731     4.3685807827     5.5221719551
          4
Energy: -0.004178283534543569 Kcal/mole
 He     7.4607607900    -0.3283732800    -2.8951979087
 He     5.0923790456     4.1991389674    -7.0156235670
 He    -2.0820893433     2.1254892618    -3.0806644387
 He     1.5554917752     4.9419843995    -3.6872199819
          4
Energy: -5.401893212278948E-4 Kcal/mole
 He    -1.5188265564    -4.4148892115    -5.4898574803
 He     4.9491339518     2.2638014593     4.6924432482
 He    -6.9492583942    -7.3887835966    -4.2456326431
 He     7.2611001400    -0.5110265936    -1.4724795847
          4
Energy: -0.006416841099296589 Kcal/mole
 He     1.1447549984     5.8433681085     1.3264415588
 He     3.8621858164    -3.3972847651     6.4648592865
 He    -6.7158599574    -7.0741156924    -5.4672479989
 He     0.8652269552     2.1120137445     0.4600453345
          4
Energy: -0.023404788551448712 Kcal/mole
 He     0.6091548868     3.5860711431     0.0523524212
 He    -4.6153480512    -1.2168616559    -6.8873728391
 He    -6.5556933538     2.0538821395    -5.5721987641
 He     0.2213585860     2.2086050023     2.7251801883
          4
Energy: -0.11997873051580246 Kcal/mole
 He     0.2795199459     1.5339298051    -2.9659834519
 He    -2.5424566472     1.5977902693    -3.4575606936
 He    -1.2544980630    -0.8961213623    -2.9047570230
 He    -1.5624101777     1.0442502034    -0.8257823175
