          4
Energy: -0.04036318184748262 Kcal/mole
 He     0.5899251657     7.0722144400     4.2044721119
 He     4.6590498830     2.0142663171    -2.5270674190
 He     6.0969791805     1.4561468788    -4.9490865678
 He     1.5394408148     5.3427712135     2.1104610206
