          4
Energy: -1.9765606910832016E-4 Kcal/mole
 He    -5.6305862360    -2.6508512827     3.7095726903
 He    -6.8579233135     2.0420650301    -2.6942764888
 He     0.7062485362     6.9293270858    -2.4426482596
 He    -6.3401046351     6.1651323895     6.4028271012
          4
Energy: -2.1357463213440294E-4 Kcal/mole
 He     1.6231406643     4.4578383797     5.5381498250
 He    -5.8066687107     0.9024364940     6.9717715799
 He    -2.6974913910     0.3581505009    -6.6522872833
 He    -3.0679280592    -6.0235864287     6.8946947677
          4
Energy: -6.12910285908964E-5 Kcal/mole
 He     3.8915084796     1.7607816804     6.2421370228
 He    -3.1870693619     6.5443107927     0.3301657345
 He    -1.1250280468    -6.6521920423    -4.7057381635
 He    -2.2600820556    -5.7826318901     6.7156587110
          4
Energy: -6.634612693065935E-4 Kcal/mole
 He    -4.2939272363    -5.8168847969     5.3215306832
 He     7.1761145084    -2.2229204014    -6.3127394486
 He     1.3175398526     1.3011621358    -0.5717609322
 He    -1.3537321542    -1.1143424351     7.2135118260
          4
Energy: -5.068898747898251E-4 Kcal/mole
 He     6.3613229607     0.5438519259     6.4034163388
 He     7.4421855152    -4.1012553114     1.6435542090
 He     0.5803018519    -0.0846365108    -4.1438266061
 He     1.8307742220     5.4116082608     4.6467076694
          4
Energy: -0.01901101697063426 Kcal/mole
 He     2.9006429728     3.4783659765    -7.4171267899
 He     2.5822829017    -2.6693171233     6.4263422540
 He    -0.9273699754    -7.3442751358    -5.9054825966
 He     4.3423878371    -0.6801478264     5.0458709313
          4
Energy: -1.717981625077638E-4 Kcal/mole
 He     0.7763739332     6.2014134116    -5.8957184309
 He    -1.9271030606    -1.4076707322    -5.0871582010
 He    -7.3090260748    -6.2122056037    -1.6648710183
 He     5.6299326642    -0.3241943768     6.6101480348
          4
Energy: -6.14333692233729E-4 Kcal/mole
 He     5.6137392063    -2.3781433509    -0.6133871838
 He    -0.3516945096    -2.3519339638     0.7575515542
 He     1.0839918422     5.8715612487    -1.5878017139
 He    -0.3682009825     2.8991985591     7.2452879882
          4
Energy: -0.0010864073350819953 Kcal/mole
 He     6.7793065981    -0.6520343704     2.4015768932
 He    -4.2056067984    -4.8667993074     0.7824824773
 He     5.7397483294    -2.8045513119    -4.2887182038
 He    -2.5288208472     0.2639240839     0.0314713267
          4
Energy: -0.11994953409600055 Kcal/mole
 He     2.7878684811    -2.2252571963    -1.7357181791
 He     0.0063780231    -1.6519727145    -2.2330313084
 He     1.5552534108    -3.0531881068    -4.1930261397
 He     0.8679986204    -4.3502474577    -1.7479518719
