          22
Energy: -73.4342977063338 Kcal/mole
 H      4.7323792098    -0.8914029020     2.0522349450
 F      4.4442528716    -1.6429728102     1.6129003500
 H      5.1332052605    -3.1330573463     0.3844642082
 F      5.7359481358    -3.5536039984    -0.1639248322
 H      4.0966059002     3.9137192443    -0.0425168169
 F      3.4901983852     3.9804005950     0.6421090102
 H      5.2776134315     2.2730436950    -1.3518277687
 F      4.9650076170     3.1055357846    -1.5757106077
 H      4.3247312284     1.3578755700     5.5850621273
 F      5.1200404305     1.5537555252     5.1727475431
 H      6.2222390770     0.0524764741    -1.3009175057
 F      6.0220041085     0.9473023100    -1.3099552504
 H      5.9145943096    -2.3722810133    -1.4679625724
 F      5.9603483016    -1.5566661645    -1.8845774911
 H      1.5815571240     3.5615021665     3.6054643454
 F      1.8771629294     3.6918303882     4.4636722238
 H      5.2080363575     0.7844701141     3.6708177516
 F      5.3321805964     0.4029609702     2.8462402955
 H      2.1127686522     2.0290884534     5.2077148394
 F      2.5456511656     1.2581603955     5.4509670935
 H      1.8877379022     3.7421199230     1.3554121897
 F      1.2597164675     3.6429383327     2.0162004233
          22
Energy: -73.63679777443018 Kcal/mole
 H      1.3233861304     2.2511601839     4.0389225415
 F      1.2009936775     1.6703840761     3.3399173913
 H      0.3742268064     1.3262929874     1.6994203618
 F     -0.0206875861     1.6972731362     0.9596194752
 H      0.5795004670     1.8607351744     7.2652130792
 F     -0.0925737917     2.3391456983     6.8648025881
 H      2.6360571726     4.6893946234     1.5442929414
 F      2.9077250135     4.7857770373     2.4148077400
 H      5.3704374477     1.8303540264     5.6137213782
 F      4.8761081674     1.4454052548     6.2833048352
 H      1.7326105837     3.9965944914    -0.3515197437
 F      2.5563483463     4.3072471161    -0.0949265926
 H     -0.0788725322     3.3719595365     0.6764015948
 F      0.0533066639     4.2738767672     0.5765869209
 H      4.4919327352     4.7176363155     2.8257051421
 F      5.3442693909     4.6493682384     3.1569915666
 H      3.2010928258     1.6889721995     6.7659255153
 F      2.3680156967     1.6334989698     7.1451275958
 H      5.8991596049     3.5513383993     4.0866969124
 F      6.1666397265     2.9512422370     4.7264062061
 H      0.7445626754     3.3398689354     5.6378037673
 F      1.3455184814     3.5367371828     4.9737374961
          22
Energy: -75.81318649892125 Kcal/mole
 H      0.4432420668     4.4801576672     6.0977900453
 F     -0.1020931379     3.9128636257     5.6269652530
 H     -0.3051332619     3.1013610951     4.1204094357
 F     -0.4512798569     2.5008083984     3.4430124831
 H      4.8015313764     5.3706312134     6.4258173638
 F      4.0913372897     5.3541464314     7.0056808056
 H      1.8465372244     0.8457999654    -1.4536898998
 F      2.5054492453     0.2734432049    -1.7349934503
 H      4.8246856809     2.7324086863     2.7497131319
 F      5.3989641157     2.8444952106     3.4557796234
 H     -0.3224370026     1.5938533380    -0.4602598220
 F      0.2608845198     1.5954396507    -1.1678066297
 H     -0.6402234594     1.7134313446     1.8653457754
 F     -0.8958373983     1.2723242217     1.1031286013
 H      3.5955152381    -0.2772892260    -0.4589443252
 F      4.1407236693    -0.2036074546     0.2746821214
 H      5.9759138316     4.5814609027     4.5491598129
 F      5.9557546252     5.3300242732     5.0784380827
 H      3.7832382352     1.3046945127     0.8713581034
 F      3.4851478882     2.0107870324     1.3748106817
 H      2.5088506304     5.7096371557     7.0452206771
 F      1.6105102544     5.7322938454     6.8625728101
          22
Energy: -75.25534914375888 Kcal/mole
 H      2.2574402640     5.8240333212    -0.4668714045
 F      1.5118994394     5.5902794314     0.0131463012
 H      0.6504638849     5.3611714415     1.6868424128
 F      0.3392294093     5.4689849539     2.5426451633
 H      4.7290610428     3.7655711527     0.1079043836
 F      4.9019989465     4.0810778178    -0.7355628806
 H      4.8135666771     1.9341976980     2.0579439993
 F      5.1950320284     1.6777409327     1.2644686605
 H      1.3892309172     4.4732489848     3.3646163676
 F      2.1974205865     4.1244918877     3.6216901813
 H      3.8182880833     0.2840631876     3.6814866534
 F      4.0925601871     1.1588841063     3.6627203721
 H      4.0481506896    -1.6096050643     2.9324714555
 F      3.2586072595    -1.2985854673     3.2800012849
 H      6.8103541680     1.0464553543     1.5679869235
 F      7.4902848745     0.5132385877     1.8750099097
 H      3.3985886028     4.1044095105     2.4928008513
 F      4.0663000943     4.1187051925     1.8644331265
 H      6.3706990621    -0.9303741367     2.3515922221
 F      5.6640041875    -1.4750832523     2.1400187514
 H      4.2849875821     5.6889452863    -0.9276359730
 F      3.6529460144     6.2802569798    -1.2305599534
          22
Energy: -66.72140489251535 Kcal/mole
 H      1.9726596511     6.0358751214    -3.0014997473
 F      1.8944063903     6.6845364475    -3.6449311043
 H      0.0026113155     7.1057749758    -3.3468836371
 F     -0.9095614737     7.1156756415    -3.2534396464
 H      0.3308739237     3.0366892289    -0.4204493171
 F      1.1572477887     3.0582213435    -0.8173518283
 H      3.6435513082     1.3880873412     4.5459505176
 F      3.3796546736     2.0045548302     3.9204783750
 H     -1.9765496148     6.1171471444    -2.4456728373
 F     -2.4238264042     5.4166316341    -2.0582318825
 H      4.0550467306    -0.5660460871     5.6823415916
 F      4.5737398816     0.1891001918     5.6423351856
 H      1.4565442738    -1.3243184105     5.3560530338
 F      2.3146174898    -1.6298964803     5.4619841403
 H      1.5032206348     2.1492280252     3.9322074914
 F      0.6626537464     1.8052024334     3.8057847944
 H     -1.5315119590     4.7091408967    -0.6778961244
 F     -1.2014415469     4.3173625504     0.0826643600
 H     -0.1132750430     0.4618582450     4.9588361759
 F      0.3183534939    -0.1537872592     5.4837803819
 H      1.9647192643     4.1770139005    -1.5620102756
 F      2.2712984809     5.0341199984    -1.6727682138
          22
Energy: -74.26165241710824 Kcal/mole
 H     -0.3215597600     2.8908019823    -2.9483186185
 F     -0.6352410394     3.7519200371    -2.9794433784
 H      0.5180829502     4.8299869314    -3.4336930758
 F      1.3764079797     5.0955412304    -3.6171271453
 H     -0.8661671388     3.6872840673     1.2226877113
 F     -1.5112991842     3.3727342434     1.7934346361
 H     -1.9137112497     3.6433145801     3.6359522537
 F     -1.8692672642     3.5258730033     4.5443140804
 H      1.6082086696     5.5654212053    -1.9817006481
 F      1.7468373648     5.8494633368    -1.1208922185
 H      0.7607392724     0.0451888041     0.8530454905
 F      0.8184666223     0.0579383105    -0.0620468563
 H      1.3456381964     0.4290130588     3.2782321534
 F      1.1497511033     0.1023520933     2.4440799727
 H     -0.9584464338     3.2413526325     5.8831632912
 F     -0.2763659598     3.1010164580     6.4797879514
 H      0.9394402781     4.9741855120    -0.0282941488
 F      0.5753709658     4.4656214710     0.6423064418
 H      0.6326269088     1.9588894661     5.2759112150
 F      0.8729678653     1.2367922408     4.7643441892
 H      0.4417086399     0.9045565451    -1.6552594671
 F      0.0736585192     1.3941789347    -2.3376801762
          22
Energy: -72.31226793405061 Kcal/mole
 H      0.2054933812     3.0346401944    -1.9646712524
 F      0.3839033379     3.9293123733    -2.0575183298
 H      1.6096638041     5.1652746018    -1.7985712028
 F      1.9972157588     5.9942668861    -1.7397131120
 H     -2.2025088044     6.1180029249     1.5330128941
 F     -2.3149059895     5.3524774249     2.0251780915
 H     -2.2466339613     4.7384816733     3.6338712595
 F     -2.2013105875     4.1722206348     4.3537207077
 H      0.5981789048     7.3128844790    -1.8690602035
 F     -0.3009403777     7.3837581338    -1.7033784578
 H     -3.1516127460     0.8780376771     0.0363651948
 F     -2.5944306273     0.3775466714    -0.4927338883
 H     -4.2397917792     0.6619749502     2.1416386092
 F     -4.1031108083     1.4338469544     1.6658015348
 H     -3.6406983738     3.1788816256     4.4156178523
 F     -4.3285466616     2.6745499468     4.7523719031
 H     -1.4289787161     7.2074686100    -0.1445511474
 F     -1.7481614063     7.4013307451     0.6929623647
 H     -4.6601905229     0.7732621274     4.4354116987
 F     -4.9085109668     0.1076273593     3.8556218121
 H     -1.0456306731     1.1143206391    -1.3446290275
 F     -0.4080792778     1.4948848112    -1.8827629600
          22
Energy: -76.36222190682311 Kcal/mole
 H      4.2312171782     1.1352371365     0.4577711899
 F      4.5901340916     1.8222165805    -0.0322562511
 H      4.0378920524     3.3940103943     0.5343025978
 F      3.5787734069     4.0769973489     0.9388120405
 H     -0.9798042114     6.5563392972     0.2354759731
 F     -1.5293715153     6.9108592444     0.8782670633
 H     -1.6933852529     6.3683121658     2.3459344710
 F     -1.7878346615     6.3572395419     3.2579902293
 H      3.0347616291     5.5238641013     0.2176910456
 F      2.8678719546     6.1796526144    -0.4011613299
 H      0.7327465535     1.6345536165     2.3421524624
 F      0.9769142724     1.1459270698     1.6055961353
 H     -0.2608242352     2.9499028252     4.5029615251
 F      0.1714494942     2.6441790767     3.7542550323
 H     -3.1147101273     5.7811656850     4.4092792928
 F     -3.5913360405     5.1007756352     4.7975911763
 H      1.2159826753     5.8816114155    -0.6936819391
 F      0.3323824123     5.6584827008    -0.5919314998
 H     -2.4627745862     3.9446210213     5.2641571421
 F     -1.8644203283     3.2514509121     5.3129052891
 H      2.7049766718     0.1496415170     1.4442898378
 F      3.5495485807    -0.1279805185     1.2195382057
          22
Energy: -72.06714078172338 Kcal/mole
 H      0.4389301201     1.6382789476     3.4852003174
 F      0.8739212107     2.0117732656     2.7695371665
 H      2.2736692757     4.6874127943     0.3299268418
 F      2.9462463685     4.8648763348    -0.2675978406
 H     -1.2610855132     3.2856050663    -2.0699112606
 F     -1.7975469110     3.9822291682    -2.3303206103
 H     -2.2776293119     5.2185724558    -1.1440095852
 F     -2.2169293093     5.7939661189    -0.4325838040
 H      3.1631982396     3.2043076625    -0.9002166412
 F      2.7100593468     2.5447309410    -1.3480030771
 H     -1.4354696632     0.8247933759     4.8545559071
 F     -0.5789028762     0.5582021433     5.0445860474
 H     -3.1810155038     2.2737507197     3.8735532684
 F     -2.8993329259     1.6957962724     4.5273977316
 H     -1.9503751945     4.7097590505     0.8075313416
 F     -1.8989591402     3.9461145160     1.3125980841
 H      0.7620722485     2.1066815905    -1.2377595545
 F     -0.0916364843     1.7764477544    -1.2926777940
 H     -3.2117584696     3.7358713205     2.2387900820
 F     -3.7864522206     3.3793439135     2.8580673225
 H      0.6885908399     3.3932955529     1.6204119835
 F      1.0143072554     4.2057203665     1.3469823967
          22
Energy: -74.12707218575103 Kcal/mole
 H     -1.4319468775    -1.3232347938     2.1187364809
 F     -1.0566821574    -1.8932338961     1.5062281844
 H      0.3364655724    -1.9817102308    -2.2990876413
 F      0.7576751240    -1.3817216366    -2.8499825500
 H     -2.5468676530     1.1406970936     0.0964654595
 F     -2.9436319182     0.9310243322     0.8961556813
 H     -2.6931280039     1.8484061422     2.3782997042
 F     -2.5514780135     2.3962259152     3.0999074761
 H      0.2712458193     0.0545304367    -2.8903407124
 F     -0.1398671672     0.8526992270    -2.7037885896
 H     -2.1672011673    -1.0007400813     4.6102766853
 F     -1.9510973612    -0.6800593464     3.7788008822
 H     -3.3266616036    -0.8274362993     6.7384234334
 F     -2.6168351910    -1.0534287901     6.2036684819
 H     -3.8677301627     1.7385291972     4.0087382280
 F     -4.4771276577     1.1211072620     4.3059146856
 H     -1.2778165775     1.3118620569    -1.7825313126
 F     -1.7434234207     1.7460614841    -1.1225539456
 H     -4.4114469987     0.7712119593     6.1705735410
 F     -4.5681866326     0.4470317671     7.0139174152
 H     -0.3426026224    -2.3064499812    -0.0118577702
 F     -0.3126211088    -2.6376402675    -0.8664355040
          22
Energy: -74.66090305593771 Kcal/mole
 H     -1.4366462073    -2.0386589291    -1.7435402158
 F     -2.1953173903    -1.6458828209    -2.0767578097
 H     -0.5801146159     0.7397800749    -3.5104438488
 F     -0.0387066011     1.1118322406    -2.8706442337
 H      0.0961946305     2.2011081144     1.6474958440
 F      0.7911799290     2.1652856381     2.2446567813
 H      0.4290251750     1.2557811215     3.5905127241
 F      0.3812746976     0.7107726748     4.3264303043
 H     -0.3027641009     2.9477210626    -1.8947498200
 F     -0.9005648575     3.3920731332    -1.3598904994
 H     -0.0164315712    -3.4348018990    -0.5509412792
 F      0.1342081400    -2.7666637737    -1.1606855886
 H     -0.4954352688    -3.8543286751     1.7649954396
 F     -0.8457552899    -3.9171646058     0.9198821166
 H     -0.5871098106    -0.8097413877     4.7269747454
 F     -1.2082504561    -1.4031671580     4.4061645935
 H     -1.0818114814     2.5522448449    -0.0218097641
 F     -1.2575281542     1.9679853689     0.6627729669
 H     -0.2418506535    -2.6551580746     3.6689101983
 F     -0.0347177739    -3.4926195463     3.3580352177
 H     -2.1790716218    -0.7635050787    -3.5713970402
 F     -1.8560120402    -0.1557043396    -4.1772846274
          22
Energy: -77.99269686778884 Kcal/mole
 H     -3.1791889424    -2.2765223176    -3.1892883396
 F     -3.4337609636    -2.3036014607    -4.0698272689
 H     -1.0106069816     1.2229470104    -5.3612030773
 F     -0.4032841788     1.8846732038    -5.5460447882
 H     -0.6840340451     3.2989608468     0.0644300194
 F     -0.2620207418     3.6271552984     0.8094683900
 H      1.3082667711     3.1197974738     0.5550337295
 F      2.1568954125     2.7988888694     0.4218567920
 H     -0.0836096857     2.4092883514    -3.9834461215
 F      0.1130911225     2.8163450867    -3.1856349870
 H     -1.8050247200    -1.8529150603    -1.3504340077
 F     -2.7020919954    -1.9905474075    -1.4816462037
 H      0.8503218565    -1.9807094157    -1.1547628069
 F     -0.0259289968    -2.0993038681    -1.3976800726
 H      2.9554889543     1.4828245507    -0.2745577928
 F      3.4852412310     0.7516892226    -0.4348470857
 H     -0.9704084629     2.6509501493    -1.8875425836
 F     -1.4390240500     2.5402220759    -1.1071402993
 H      2.7360494931    -0.7304444076    -0.6774439684
 F      2.4876539872    -1.5988495579    -0.8357511618
 H     -2.8810040148    -0.8218227887    -4.9457371892
 F     -2.2718478224    -0.1456771409    -5.0581862715
          22
Energy: -74.63063384782733 Kcal/mole
 H     -0.1354878661    -0.4535699669    -5.8074821773
 F     -0.1234169858     0.0350232857    -6.5833816085
 H     -1.1811098093     3.9055111130    -5.5019804543
 F     -1.6191550329     4.5779371528    -5.0583042176
 H     -3.8827263625     1.9128632674    -1.5397773737
 F     -3.8241826095     2.2324266325    -0.6822571788
 H     -3.8373761420     1.4171667928     0.7381156559
 F     -4.0105834085     0.7342405719     1.3250568962
 H     -3.2919421922     4.2484256719    -4.6007335988
 F     -4.0960178696     3.8189999742    -4.5010096045
 H      0.1077207317    -0.8819685561    -3.2237456682
 F      0.1659607955    -0.5661334465    -4.0826666648
 H     -0.0385440038    -1.6709284338    -0.8456767957
 F      0.1806483777    -1.6122063752    -1.7341560694
 H     -2.6625761368    -0.3619724376     2.4555071245
 F     -2.0934111446    -0.9252807035     2.9023001518
 H     -4.0143873263     2.1645934747    -3.8689078097
 F     -3.6024645942     1.5470907888    -3.3304850244
 H     -0.9259325548    -1.4912232822     1.7958588732
 F     -0.6391081374    -1.6135985631     0.9335103101
 H     -0.2984581328     1.7281061653    -6.1960079290
 F     -0.6011342494     2.5856006617    -6.0777735975
          22
Energy: -73.78980726365877 Kcal/mole
 H     -2.5765895593    -1.4842376060    -6.3841841657
 F     -2.0870488781    -0.9001549695    -6.8941708275
 H     -3.0672553018     2.9655797263    -4.9702958449
 F     -3.3810442903     3.2011118017    -4.1414713085
 H     -3.5951267907    -0.1764318648     0.2351784413
 F     -4.2657872522    -0.6366992253     0.6585665639
 H     -4.8239126661    -2.2107946674    -0.0803655608
 F     -5.3760890419    -2.6663207077    -0.6535027840
 H     -3.0422012669     2.1731082298    -2.8562414654
 F     -2.7315439868     1.7540501461    -2.1020721364
 H     -4.3125536150    -1.8114013497    -5.2224885294
 F     -3.6579043340    -2.4010024214    -5.4768384757
 H     -5.4420075516    -0.7388355547    -3.9601381998
 F     -5.3980300148    -0.8403765583    -4.8704372720
 H     -6.9501164231    -1.6207389781    -0.7147836006
 F     -7.3621213971    -0.8108309215    -0.8380306745
 H     -2.0287911793     0.7230450544    -1.0175969178
 F     -1.8594071072     0.1946249541    -0.2875488141
 H     -6.3019628780    -0.1572967558    -2.0026976256
 F     -5.5030198235    -0.0446602817    -2.4384636412
 H     -2.0828846945     1.0712108038    -6.7521553029
 F     -2.5204533277     1.8706903721    -6.6508877801
          22
Energy: -77.36576149112321 Kcal/mole
 H     -1.7182825034    -2.6356941020    -5.3315152386
 F     -0.8710985242    -2.9505268399    -5.4865915181
 H      2.5754570082    -1.4074629188    -3.0717887949
 F      3.2239684422    -1.1691121030    -2.4688702195
 H     -1.3880568581    -0.5908046703     1.2711659630
 F     -2.1642214199    -0.1226219852     1.4099555388
 H     -3.6680128822    -1.0758593912     1.5968936487
 F     -4.3980876038    -1.5818514925     1.3691835384
 H      2.9078982728    -0.9518801181    -0.6351601708
 F      2.5004268555    -0.8783020927     0.1830343771
 H     -4.0850632262    -2.0467809664    -4.4804658558
 F     -3.1786993544    -2.0020927622    -4.6123616335
 H     -6.0637422965    -1.3768564092    -4.0183012274
 F     -5.6319952896    -2.0978448160    -4.3852606794
 H     -4.9321049978    -1.5579557593    -0.0338262590
 F     -5.2527774841    -1.6201130279    -0.8906778393
 H      0.7438119133    -1.2683552811     0.8474860239
 F     -0.0579683462    -1.4237383063     1.2644914568
 H     -6.4054699981    -0.6983116736    -2.0099625484
 F     -6.7620714872    -0.4656868232    -2.8221263600
 H      0.5592960456    -2.6591381008    -4.4535159151
 F      1.2528926484    -2.2794693328    -3.9891191244
          22
Energy: -76.99143538274923 Kcal/mole
 H     -4.1351394036    -2.4493460039    -2.6346907206
 F     -3.5049967948    -3.1067645183    -2.7424413095
 H     -6.877756E-40    -1.0080066079    -2.6719438158
 F      0.9143512847    -0.9706676002    -2.6250576055
 H     -0.2527688627     1.7214915207     0.0748391409
 F     -1.1012909906     1.4218493953     0.2512301698
 H     -2.1590794387     1.6671960699    -1.2316048053
 F     -2.6810552752     1.7677148852    -1.9788170870
 H      2.2994743759     0.2912755688    -2.4249087719
 F      2.8403339734     0.8184546735    -1.9048683049
 H     -5.6471675487    -1.0184515016    -1.5615206228
 F     -5.0581830339    -1.0970116818    -2.2599578351
 H     -6.4566696719     0.8843887749    -0.0421265278
 F     -6.3682510127     0.0315327915    -0.3672539065
 H     -4.1577874503     2.6625554662    -2.0881084933
 F     -4.9653245184     3.0936827832    -2.0342371634
 H      1.8354133842     1.8952287776    -1.2604199087
 F      1.0761532048     2.2868471158    -0.9271811698
 H     -5.8965214128     2.9624126106    -0.4812025827
 F     -6.4571825748     2.6228784611     0.1600965853
 H     -2.1259352542    -2.3026100154    -2.5495097241
 F     -1.6052980441    -1.5569979610    -2.4316599906
          22
Energy: -77.6285813489938 Kcal/mole
 H     -1.9128117466    -2.0483801979    -0.8910383803
 F     -1.4338268565    -2.8296870294    -0.9230088376
 H     -0.8257133856    -3.7435748091     2.7312320086
 F     -0.7662756849    -3.3072898822     3.5356023352
 H     -0.6316309322     2.7182628700     2.3108269440
 F     -0.9012290565     3.5185290121     1.9533637247
 H     -1.4412239804     4.1609000496     0.4312648400
 F     -1.7810312113     4.4079630632    -0.3838301932
 H     -0.3015471230    -1.7274247126     2.8536141857
 F     -0.1945784709    -1.0278819730     2.2704446881
 H     -3.0275947585     0.0560277115     0.3010617042
 F     -2.4520882214    -0.4712376237    -0.1802619832
 H     -4.8796604691     1.1703036699     0.3429903950
 F     -4.1812323104     0.9389162070     0.8902992193
 H     -3.4995353650     4.5439037769    -0.7102669300
 F     -4.4046664526     4.6709278427    -0.6361615930
 H     -0.6301216391     0.3938858136     2.9543420007
 F     -0.8508655487     1.2167870775     3.2934505915
 H     -5.4507654617     2.9354643027    -0.7911539222
 F     -5.7413033820     2.0657157203    -0.7949116340
 H     -1.1899543310    -3.9538068099     0.3877311954
 F     -0.7579681771    -4.3334542280     1.1019754118
          22
Energy: -76.668493463795 Kcal/mole
 H     -2.1416971036     1.6274205020    -1.1913836099
 F     -2.2144699969     1.0253095290    -0.5035933205
 H     -0.7201165025    -1.1745271743     1.9746978758
 F      0.1341783158    -1.4024222455     2.2178710647
 H     -0.1870195367     3.5690935493     1.2986389656
 F     -0.1266538448     4.2459536109     0.6829235766
 H     -0.2778328212     5.3352956530    -0.7447228080
 F     -0.7149648766     5.7701522869    -1.4234748055
 H      1.3585694841    -0.1618258863     2.2923730925
 F      2.0629667826     0.4245385425     2.2625368314
 H     -2.6781024289     2.9261887613    -3.1903979436
 F     -1.9213156180     2.6305431619    -2.7652433806
 H     -4.6641041713     3.3766006833    -3.4241408578
 F     -4.0336512494     3.3919287235    -4.0898608924
 H     -2.2944564553     5.8343761782    -1.2889095275
 F     -3.1651814918     5.7738754482    -1.0077217388
 H      0.7788672818     1.8454198686     2.3951299049
 F     -0.0689205112     2.1832019853     2.3054187037
 H     -4.3353190898     4.6577375111    -1.1856084711
 F     -4.8691517023     3.9795970021    -1.4955071511
 H     -2.2625256177    -0.1073545575     0.7889754241
 F     -2.2598359331    -0.5832406010     1.5728212247
          22
Energy: -76.95021094557654 Kcal/mole
 H     -3.9209725161    -1.0429619302    -0.2750019315
 F     -4.2830259995    -0.7429763712     0.5122813336
 H     -0.9572881533     0.4738878253     1.9931441090
 F     -0.1059052715     0.8015344487     1.8999567776
 H      3.0836645806     3.8496300306    -0.7823420433
 F      2.7346503745     4.6554440790    -1.0464287780
 H      1.9561981310     6.0186484902    -0.2585286292
 F      1.2769358282     6.2912849847     0.2938852245
 H      0.8445397092     0.3569414544     0.5618666581
 F      1.5607825345     0.4254830905    -0.0066289526
 H     -3.3894021603    -0.1123868938    -2.1158167162
 F     -3.3677591549    -0.9711967162    -1.7950889980
 H     -2.6165986874     1.8493312059    -2.0060515102
 F     -3.1592118016     1.4066712132    -2.5980921669
 H      0.2810860729     5.1983385772    -0.2460470158
 F     -0.1878710826     4.4152758346    -0.3342565814
 H      2.6950783882     1.7367670044     0.0080614223
 F      3.4214539239     2.2896951405    -0.0787605646
 H     -1.1315956512     2.9615585493    -0.4967743173
 F     -1.4760120607     2.1302729967    -0.6734963216
 H     -3.2544390688    -0.5557246144     1.8171641396
 F     -2.5589691339    -0.0866202815     2.1875041112
          22
Energy: -77.26866126751463 Kcal/mole
 H     -1.0073562657    -1.2138303084    -0.4714135000
 F     -1.8164994976    -1.1240241554    -0.0493814099
 H     -0.8500983789     1.2007061771     1.6051174306
 F     -0.1095563967     1.4744231174     1.1386781427
 H      2.0375955044     6.2544541699    -1.4291043248
 F      1.4235732819     6.8858101109    -1.6845556625
 H      1.0266982716     6.8135638215    -3.4449751757
 F      0.9967347545     6.4061669869    -4.2659617814
 H      1.3190997434     2.8989753289     0.9292779485
 F      1.7349196701     3.7161033203     0.9124068415
 H      0.6616341850     0.2797707576    -1.3483116862
 F      0.4843688780    -0.6179874268    -1.2891825619
 H      1.1356545798     1.6162435119    -2.8424146755
 F      1.1795245282     1.8233084948    -1.9501767473
 H      0.4212091956     4.9818145323    -5.0121529001
 F      0.1161662612     4.1589072708    -5.2779751098
 H      2.8316428668     4.7814325376    -0.1435938367
 F      3.1922598485     5.0407880108    -0.9458276748
 H      0.4097835962     2.4399853948    -4.8785998661
 F      0.4602769445     1.6038044557    -4.5055839698
 H     -2.2397980660    -0.3525684962     1.4912548189
 F     -2.2666910242     0.1947111882     2.2265443645
          22
Energy: -78.16115597294787 Kcal/mole
 H     -5.1042113449     1.0000077484    -0.8432837553
 F     -5.1747312482     0.6794979383     0.0129810430
 H     -2.0566523712     1.7612480301     0.7331205785
 F     -1.9677670482     2.6397843247     0.4858102909
 H      1.9340923420     6.4937689315     2.9918068889
 F      2.0490926486     7.2323784065     2.4606572180
 H      1.7063432753     7.2052733635     0.8165656928
 F      1.4968019265     6.9285809627    -0.0322115092
 H     -0.9822305185     3.8258661546     1.2671428715
 F     -0.4469022161     4.4125419072     1.7255359015
 H     -3.4720056618     2.0488559142    -3.0996636568
 F     -4.0481985753     1.5781172823    -2.5636637809
 H     -1.7253110977     3.6222331429    -3.8144858288
 F     -2.5443424429     3.2425427032    -3.9754573344
 H     -0.0039324904     6.2525795396    -0.6309507316
 F     -0.6459036208     6.1007931790    -1.2679145991
 H      0.6227918046     4.8022657038     2.9688341837
 F      1.2864779962     4.9630717441     3.5808399487
 H     -0.3741237765     4.8121073149    -2.6356507536
 F     -0.1466819590     4.0564191696    -3.1026567993
 H     -3.7107061253     0.3169172711     0.8253323128
 F     -2.8260216420     0.2991618698     1.0659712762
          22
Energy: -78.71253070941566 Kcal/mole
 H     -4.4355854698     1.8237356152    -1.2413059131
 F     -4.6120416090     1.3881674745    -0.4538844086
 H     -2.6336326869     2.9604667083     1.8292516511
 F     -1.7575679899     3.2035505070     1.9488757013
 H      1.6658419080     5.6430685296     2.8665819098
 F      1.9821038618     5.8347225340     2.0274537199
 H      1.3618683603     6.3091210277     0.5641006508
 F      0.8709244694     6.5080583670    -0.1844225827
 H     -1.1398204319     3.7481344852     3.3624892266
 F     -0.8680029761     4.1177586026     4.1564553988
 H     -3.3234409652     3.3714405920    -3.0011561281
 F     -3.4507340038     2.4904946948    -2.7806571291
 H     -3.2714165277     5.7879814641    -3.1357736908
 F     -3.0528132925     5.0341027349    -3.6098712410
 H     -0.7270716226     6.1894543221    -0.0068930158
 F     -1.6274825767     6.1625927665     0.1646516447
 H      0.6079684616     4.9153525177     4.5874540325
 F      1.3422999155     5.4638368108     4.5589707739
 H     -2.8974021353     6.5131761892    -1.1413771082
 F     -3.5279559652     6.7172368221    -1.7751358365
 H     -4.5664109257     1.9878518569     0.9595731003
 F     -4.2632272963     2.4459341570     1.6938273432
          22
Energy: -77.58988137135057 Kcal/mole
 H     -2.5979801729     1.3240834215    -1.9131972818
 F     -2.9429864941     1.8279502174    -1.2291081865
 H     -3.0940856860     5.0597398030     0.8319216811
 F     -2.7918031295     5.7266202818     1.3839947588
 H      2.2341684650     6.5356630103     1.6204297942
 F      2.6091396068     6.5648778373     0.7841091998
 H      2.2700366205     5.8615182990    -0.6780048723
 F      2.2894364500     5.3181774517    -1.4164446940
 H     -2.1561182633     6.0529956350     2.8759655874
 F     -1.6194174092     6.1584833430     3.6119775008
 H     -1.7203614704     1.3904482463    -3.9111156642
 F     -1.8855582413     0.7638835222    -3.2622584585
 H     -1.7012711053     3.4210726109    -5.0150982175
 F     -2.1145119077     2.6050976789    -5.0807179516
 H      0.8757387076     4.5303767659    -1.7603189398
 F      0.0721077072     4.2120678942    -2.0664980985
 H     -0.1930442793     6.9492005405     3.2619406856
 F      0.6851143272     7.2067823860     3.2038196505
 H     -0.5399215861     4.7333660351    -3.5796318059
 F     -0.8183370812     4.8076636942    -4.4501797195
 H     -3.6924594456     3.2588232152    -0.5825078051
 F     -3.9461144276     3.9962371986    -0.1000466488
          22
Energy: -78.47668979101783 Kcal/mole
 H     -2.6255276612     0.3412089186    -0.2110711383
 F     -2.6692092936     1.1668561010     0.1855239261
 H      0.2958213373     2.0817548268     2.3778040050
 F      0.6929279273     2.4238451015     3.1302464282
 H      5.2146374357     3.0725918991     1.3220103367
 F      5.2076419524     2.5376563962     0.5772391833
 H      3.6637132676     2.4013100289     0.2901483957
 F      2.8161382987     2.6379949987     0.0322998022
 H      2.1678881159     3.0745112235     3.7765637263
 F      2.9542698870     3.4422059766     4.0720180858
 H     -1.5752316676    -1.2636146357    -1.5941613246
 F     -2.4278074539    -1.1143589062    -1.2912978966
 H      0.3157276709    -1.1391033748    -2.9898199780
 F     -0.1757370049    -1.7638246932    -2.5325730571
 H      1.7020269631     1.7727239223    -1.1389572515
 F      1.0999498266     1.5762870473    -1.8021349621
 H      4.2823056832     3.8927844525     2.9934297598