          22
Energy: -87.18630265394619 Kcal/mole
 H      2.2301748879    -3.2592698719     1.5993014638
 F      2.0072056605    -2.5824544483     2.1764449519
 H      3.2111060988    -0.5433252464     4.9695739192
 F      3.0865721749    -0.0299308138     5.7191114155
 H      6.7134334445    -1.8934791621     3.8881598394
 F      6.7969855436    -1.8640321390     2.9754490859
 H      5.6198334736    -2.5098056203     2.0068557921
 F      5.0253268823    -2.9169393460     1.4396758891
 H      4.5565248510     0.1075160753     6.4613329202
 F      5.4340903180     0.0549586714     6.7221116969
 H      2.2906200576    -4.4386147192    -0.3650518000
 F      2.5746738050    -4.4687227369     0.5063241096
 H      2.8940370017    -4.2878447499    -2.3674516460
 F      2.0618233759    -4.3160813437    -1.9833785076
 H      5.6299329382    -3.7650515753     0.1474001066
 F      5.9492436489    -4.1861846090    -0.6019840658
 H      6.2075533697    -1.2176359232     6.0154532644
 F      6.5389968730    -1.9292768892     5.5415320266
 H      5.0877730749    -4.2191154429    -2.0209458338
 F      4.5086542929    -4.2124584936    -2.7319072402
 H      3.1697418265    -1.9016536063     3.1365606998
 F      3.7522174819    -1.5003059845     3.7201112096
          22
Energy: -87.18626256725513 Kcal/mole
 H      2.2275818903    -3.2601461453     1.5993341448
 F      2.0073432131    -2.5824079640     2.1764432183
 H      3.2104788341    -0.5462709440     4.9714963190
 F      3.0866054499    -0.0297745513     5.7190094366
 H      6.7160242695    -1.8989834333     3.8881980742
 F      6.7968481064    -1.8637401501     2.9754470576
 H      5.6214262966    -2.5128868467     2.0073865663
 F      5.0252423868    -2.9167758941     1.4396477328
 H      4.5588714184     0.1089258703     6.4538486724
 F      5.4339658380     0.0548838851     6.7225087190
 H      2.2879586618    -4.4376802729    -0.3641466403
 F      2.5748149859    -4.4687723072     0.5062760930
 H      2.8939072665    -4.2840168280    -2.3674312220
 F      2.0618302580    -4.3162844061    -1.9833795910
 H      5.6299717431    -3.7628987043     0.1462025225
 F      5.9492415904    -4.1862988138    -0.6019205368
 H      6.2101744932    -1.2200680347     6.0208913868
 F      6.5388578284    -1.9291478713     5.5412435468
 H      5.0879226881    -4.2237304137    -2.0211267274
 F      4.5086463562    -4.2122136801    -2.7318976442
 H      3.1687848393    -1.9013805505     3.1373295522
 F      3.7522682478    -1.5003204695     3.7200704237
          22
Energy: -87.18787307007265 Kcal/mole
 H      2.2305972756    -3.2597618838     1.6000425121
 F      2.0071832538    -2.5824283482     2.1764056410
 H      3.2083091571    -0.5467077145     4.9714420132
 F      3.0867205462    -0.0297513817     5.7190123174
 H      6.7150618826    -1.8936607288     3.8883014929
 F      6.7968991588    -1.8640225073     2.9754415715
 H      5.6210593532    -2.5160875339     2.0100327418
 F      5.0252618523    -2.9166061050     1.4395073593
 H      4.5586423229     0.1089528533     6.4546015378
 F      5.4339779910     0.0548824537     6.7224687812
 H      2.2916293007    -4.4401016903    -0.3654301363
 F      2.5746202670    -4.4686438566     0.5063441795
 H      2.8922108306    -4.2873149705    -2.3713439382
 F      2.0619202500    -4.3161094473    -1.9831720305
 H      5.6331300720    -3.7616104012     0.1468128091
 F      5.9490740483    -4.1863671553    -0.6019529110
 H      6.2138041602    -1.2169528157     6.0187431353
 F      6.5386652830    -1.9293131265     5.5413575066
 H      5.0863127078    -4.2203789449    -2.0197718940
 F      4.5087317620    -4.2123914678    -2.7319695150
 H      3.1696813516    -1.9002656400     3.1356689230
 F      3.7522206899    -1.5003796129     3.7201585163
          22
Energy: -87.1869468039825 Kcal/mole
 H      2.2261280366    -3.2587436899     1.5971404347
 F      2.0074203366    -2.5824823610     2.1765595895
 H      3.2082474819    -0.5439923656     4.9695619617
 F      3.0867238180    -0.0298954246     5.7191120498
 H      6.7132986332    -1.8938606395     3.8881350959
 F      6.7969926951    -1.8640119025     2.9754503984
 H      5.6194879013    -2.5146772485     2.0106792583
 F      5.0253452142    -2.9166809174     1.4394730631
 H      4.5584371798     0.1060186144     6.4546966364
 F      5.4339888734     0.0550381083     6.7224637364
 H      2.2912365482    -4.4399364396    -0.3652971123
 F      2.5746411016    -4.4686526227     0.5063371229
 H      2.8934550868    -4.2844188498    -2.3684427765
 F      2.0618542451    -4.3162630798    -1.9833259304
 H      5.6310279474    -3.7630959688     0.1467638770
 F      5.9491855612    -4.1862883494    -0.6019503153
 H      6.2100597122    -1.2186451568     6.0187017428
 F      6.5388639173    -1.9292233517     5.5413597023
 H      5.0884791046    -4.2210778878    -2.0215427956
 F      4.5086168396    -4.2123543905    -2.7318755727
 H      3.1700691346    -1.9006251862     3.1355286917
 F      3.7522001190    -1.5003605399     3.7201659552
          22
Energy: -87.18798673557374 Kcal/mole
 H      2.2296610513    -3.2598523102     1.5997867419
 F      2.0072329184    -2.5824235513     2.1764192090
 H      3.2090212167    -0.5452761234     4.9705701949
 F      3.0866827731    -0.0298273243     5.7190585653
 H      6.7149835853    -1.8922560777     3.8883389366
 F      6.7969033123    -1.8640970208     2.9754395852
 H      5.6215872724    -2.5136673861     2.0077720736
 F      5.0252338474    -2.9167344883     1.4396272825
 H      4.5576535657     0.1081287748     6.4576882350
 F      5.4340304423     0.0549261691     6.7223050391
 H      2.2896386311    -4.4421091808    -0.3648446266
 F      2.5747258675    -4.4685373638     0.5063131196
 H      2.8933530866    -4.2857309742    -2.3687690126
 F      2.0618596560    -4.3161934746    -1.9833086243
 H      5.6308369163    -3.7654504575     0.1480085041
 F      5.9491956949    -4.1861634492    -0.6020163399
 H      6.2140807328    -1.2166650716     6.0185017280
 F      6.5386506115    -1.9293283907     5.5413703127
 H      5.0882488398    -4.2213596487    -2.0213584083
 F      4.5086290547    -4.2123394437    -2.7318853540
 H      3.1687788424    -1.9010439378     3.1371040379
 F      3.7522685660    -1.5003383261     3.7200823868
          22
Energy: -87.18684540037292 Kcal/mole
 H      2.2275474068    -3.2590775619     1.5980685796
 F      2.0073450423    -2.5824646499     2.1765103536
 H      3.2103035257    -0.5401198028     4.9672564533
 F      3.0866147496    -0.0301008551     5.7192343517
 H      6.7142557974    -1.8943075666     3.8882076055
 F      6.7969419197    -1.8639881941     2.9754465520
 H      5.6216842996    -2.5156558860     2.0090757107
 F      5.0252287003    -2.9166290029     1.4395581276
 H      4.5576369084     0.1102783674     6.4581852754
 F      5.4340313259     0.0548121382     6.7222786722
 H      2.2885970419    -4.4385616550    -0.3643877566
 F      2.5747811214    -4.4687255519     0.5062888837
 H      2.8939821021    -4.2870384334    -2.3675104236
 F      2.0618262882    -4.3161241169    -1.9833753895
 H      5.6311885658    -3.7609458299     0.1456126152
 F      5.9491770407    -4.1864024093    -0.6018892435
 H      6.2112731407    -1.2180716644     6.0186818840
 F      6.5387995477    -1.9292537742     5.5413607558
 H      5.0889575440    -4.2210680845    -2.0219335201
 F      4.5085914595    -4.2123549105    -2.7318548457
 H      3.1670182028    -1.8992331407     3.1376275933
 F      3.7523619638    -1.5004343847     3.7200546134
          22
Energy: -87.18659511344212 Kcal/mole
 H      2.2307630229    -3.2604606124     1.6009290850
 F      2.0071744613    -2.5823912822     2.1763586104
 H      3.2093245086    -0.5447407881     4.9702514447
 F      3.0866666842    -0.0298557226     5.7190754743
 H      6.7155442565    -1.8913429311     3.8884167498
 F      6.7968735699    -1.8641454611     2.9754354574
 H      5.6184941535    -2.5151083803     2.0120136088
 F      5.0253979302    -2.9166580469     1.4394022789
 H      4.5595840506     0.1095773080     6.4516696193
 F      5.4339280346     0.0548493278     6.7226243127
 H      2.2926583565    -4.4387599550    -0.3657184773
 F      2.5745656780    -4.4687150325     0.5063594753
 H      2.8943422400    -4.2867497930    -2.3667072216
 F      2.0618071837    -4.3161394286    -1.9834179976
 H      5.6333940868    -3.7610765248     0.1466210804
 F      5.9490600430    -4.1863954763    -0.6019427403
 H      6.2162483417    -1.2165186499     6.0197506183
 F      6.5385356248    -1.9293361580     5.5413040619
 H      5.0890314103    -4.2210594588    -2.0219938072
 F      4.5085875411    -4.2123553681    -2.7318516476
 H      3.1693851500    -1.9007862694     3.1363210379
 F      3.7522364028    -1.5003519948     3.7201239231
          22
Energy: -87.18706148744572 Kcal/mole
 H      2.2319157688    -3.2587193077     1.5993314187
 F      2.0071133108    -2.5824836544     2.1764433629
 H      3.2102965689    -0.5452878850     4.9707879251
 F      3.0866151186    -0.0298267003     5.7190470152
 H      6.7163514508    -1.8930749333     3.8884349537
 F      6.7968307501    -1.8640535824     2.9754344917
 H      5.6185941892    -2.5106306674     2.0087416622
 F      5.0253926235    -2.9168955792     1.4395758481
 H      4.5581587632     0.1080723437     6.4560098595
 F      5.4340036428     0.0549291627     6.7223940730
 H      2.2922179729    -4.4373555856    -0.3655265503
 F      2.5745890393    -4.4687895311     0.5063492940
 H      2.8926177287    -4.2859037362    -2.3703646810
 F      2.0618986650    -4.3161843100    -1.9832239778
 H      5.6321131837    -3.7618346934     0.1465101386
 F      5.9491279919    -4.1863552572    -0.6019368551
 H      6.2112533109    -1.2168374169     6.0168238277
 F      6.5388005997    -1.9293192481     5.5414593214
 H      5.0871868429    -4.2203820159    -2.0204817756
 F      4.5086853911    -4.2123913048    -2.7319318574
 H      3.1691984941    -1.9041666118     3.1388420578
 F      3.7522463044    -1.5001726754     3.7199901888
          22
Energy: -87.1867538561394 Kcal/mole
 H      2.2237298283    -3.2598452518     1.5975273446
 F      2.0075475561    -2.5824239257     2.1765390649
 H      3.2053070144    -0.5451204773     4.9698660024
 F      3.0868798030    -0.0298355809     5.7190959211
 H      6.7158319956    -1.8915839608     3.8884351203
 F      6.7968583060    -1.8641326751     2.9754344828
 H      5.6193365872    -2.5152203766     2.0112183303
 F      5.0253532410    -2.9166521057     1.4394444666
 H      4.5568931319     0.1077585211     6.4601456925
 F      5.4340707816     0.0549458102     6.7221746766
 H      2.2807332912    -4.4443010025    -0.3646847382
 F      2.5624310883    -4.4711177627     0.5075630549
 H      2.8935301121    -4.2864868987    -2.3684459170
 F      2.0618502652    -4.3161533746    -1.9833257638
 H      5.6344590402    -3.7623092526     0.1477677861
 F      5.9490035496    -4.1863300829    -0.6020035704
 H      6.2114955027    -1.2174685344     6.0179347616
 F      6.5387877519    -1.9292857688     5.5414003889
 H      5.0869272770    -4.2191635505    -2.0202582150
 F      4.5086991605    -4.2124559416    -2.7319437168
 H      3.1722970321    -1.9014040183     3.1338511137
 F      3.7520819341    -1.5003192246     3.7202549469
          22
Energy: -87.18760137064882 Kcal/mole
 H      2.2265000806    -3.2605886332     1.5994422007
 F      2.0074006006    -2.5823844910     2.1764374862
 H      3.2084977546    -0.5464814805     4.9713163156
 F      3.0867105416    -0.0297633828     5.7190189854
 H      6.7167361879    -1.8934279334     3.8884574893
 F      6.7968103407    -1.8640348566     2.9754332962
 H      5.6199216753    -2.5142788610     2.0099468749
 F      5.0253222034    -2.9167020509     1.4395119143
 H      4.5578967776     0.1075684687     6.4567725070
 F      5.4340175405     0.0549558921     6.7223536163
 H      2.2826607004    -4.4436490168    -0.3652844458
 F      2.5623288436    -4.4711523490     0.5075948680
 H      2.8931836216    -4.2853186472    -2.3691015647
 F      2.0618686457    -4.3162153476    -1.9832909832
 H      5.6308645471    -3.7599526390     0.1449083633
 F      5.9491942292    -4.1864550958    -0.6018518846
 H      6.2105890443    -1.2172212236     6.0169407054
 F      6.5388358375    -1.9292988881     5.5414531213
 H      5.0880480794    -4.2225369126    -2.0212106545
 F      4.5086397045    -4.2122769926    -2.7318931920
 H      3.1679876130    -1.9022447853     3.1387255972
 F      3.7523105389    -1.5002746239     3.7199963668
          22
Energy: -87.18756395894586 Kcal/mole
 H      2.2258219366    -3.2601128448     1.5986266808
 F      2.0074365745    -2.5824097305     2.1764807476
 H      3.2095402559    -0.5474295780     4.9721432058
 F      3.0866552393    -0.0297130885     5.7189751207
 H      6.7145568866    -1.8933235983     3.8882669527
 F      6.7969259476    -1.8640403913     2.9754434037
 H      5.6188547224    -2.5136352792     2.0106031691
 F      5.0253788028    -2.9167361915     1.4394770994
 H      4.5575973817     0.1139986239     6.4591271571
 F      5.4340334227     0.0546147872     6.7222287076
 H      2.2829757833    -4.4429473167    -0.3653629272
 F      2.5623121292    -4.4711895726     0.5075990312
 H      2.8935816308    -4.2884547420    -2.3684809475
 F      2.0618475322    -4.3160489850    -1.9833239055
 H      5.6303768658    -3.7621762686     0.1459660286
 F      5.9492200996    -4.1863371374    -0.6019079913
 H      6.2104810678    -1.2184189306     6.0186549640
 F      6.5388415654    -1.9292353525     5.5413621838
 H      5.0886713169    -4.2226401359    -2.0217207490
 F      4.5086066432    -4.2122715168    -2.7318661327
 H      3.1695159167    -1.9023738393     3.1372825313
 F      3.7522294659    -1.5002677778     3.7200729181
          22
Energy: -87.18677342790342 Kcal/mole
 H      2.2254070992    -3.2611130584     1.5996449600
 F      2.0074585807    -2.5823566715     2.1764267302
 H      3.2120528092    -0.5440309965     4.9702158842
 F      3.0865219541    -0.0298933754     5.7190773607
 H      6.7156464815    -1.8909887632     3.8884363281
 F      6.7968681471    -1.8641642489     2.9754344188
 H      5.6210360705    -2.5150693059     2.0093408432
 F      5.0252630874    -2.9166601197     1.4395440629
 H      4.5575674279     0.1140929987     6.4592482882
 F      5.4340350117     0.0546097808     6.7222222818
 H      2.2836839107    -4.4449319056    -0.3656509964
 F      2.5622745647    -4.4710842947     0.5076143127
 H      2.8943521603    -4.2881867518    -2.3667930096
 F      2.0618066574    -4.3160632013    -1.9834134467
 H      5.6359210119    -3.7607716040     0.1475083129
 F      5.9489259954    -4.1864116516    -0.6019898059
 H      6.2109777660    -1.2172041000     6.0171831778
 F      6.5388152167    -1.9292997964     5.5414402587
 H      5.0882996545    -4.2206509243    -2.0213912386
 F      4.5086263590    -4.2123770399    -2.7318836125
 H      3.1686936968    -1.9018373468     3.1377355370
 F      3.7522730827    -1.5002962375     3.7200488872
          22
Energy: -87.18619913535721 Kcal/mole
 H      2.2270678251    -3.2607176857     1.5998099093
 F      2.0073704830    -2.5823776451     2.1764179801
 H      3.2089214904    -0.5418117238     4.9681805922
 F      3.0866880634    -0.0300111026     5.7191853282
 H      6.7120673459    -1.8932513094     3.8880410195
 F      6.7970580120    -1.8640442261     2.9754553890
 H      5.6205505737    -2.5150962872     2.0098670151
 F      5.0252888418    -2.9166586884     1.4395161507
 H      4.5564821954     0.1066614419     6.4613057006
 F      5.4340925808     0.0550040077     6.7221131409
 H      2.2842265707    -4.4423788652    -0.3657435461
 F      2.5622457779    -4.4712197276     0.5076192222
 H      2.8941325051    -4.2836468340    -2.3669115115
 F      2.0618183096    -4.3163040335    -1.9834071604
 H      5.6282925034    -3.7656918076     0.1470586536
 F      5.9493306702    -4.1861506462    -0.6019659525
 H      6.2118984990    -1.2189049609     6.0203482952
 F      6.5387663739    -1.9292095697     5.5412723565
 H      5.0873034573    -4.2229279373    -2.0206100122
 F      4.5086792050    -4.2122562496    -2.7319250547
 H      3.1689666117    -1.8991779942     3.1356386779
 F      3.7522586052    -1.5004373100     3.7201601207
          22
Energy: -87.18722542512168 Kcal/mole
 H      2.2260262476    -3.2628380583     1.6019166736
 F      2.0074257363    -2.5822651642     2.1763062211
 H      3.2107514508    -0.5462224209     4.9715080223
 F      3.0865909882    -0.0297771254     5.7190088158
 H      6.7145715249    -1.8969402046     3.8881447003
 F      6.7969251711    -1.8638485387     2.9754498890
 H      5.6193906068    -2.5148228566     2.0108828692
 F      5.0253503754    -2.9166731932     1.4394622620
 H      4.5573233204     0.1105692744     6.4592898126
 F      5.4340479611     0.0547967063     6.7222200791
 H      2.2810875416    -4.4422496610    -0.3647334609
 F      2.5624122961    -4.4712265816     0.5075656395
 H      2.8936506998    -4.2874775514    -2.3682604069
 F      2.0618438683    -4.3161008227    -1.9833356047
 H      5.6345068650    -3.7606588344     0.1468519794
 F      5.9490010126    -4.1864176338    -0.6019549889
 H      6.2117374030    -1.2180138333     6.0189139837
 F      6.5387749197    -1.9292568420     5.5413484434
 H      5.0873750408    -4.2217410431    -2.0206514834
 F      4.5086754077    -4.2123192116    -2.7319228548
 H      3.1672336486    -1.9014480584     3.1389336836
 F      3.7523505349    -1.5003168884     3.7199853283
          22
Energy: -87.18702690864676 Kcal/mole
 H      2.2199192333    -3.2587632254     1.6052966318
 F      2.0024855479    -2.5812463839     2.1837277185
 H      3.2084020630    -0.5458055565     4.9708341074
 F      3.0867156178    -0.0297992391     5.7190445654
 H      6.7158440569    -1.8932180399     3.8883855172
 F      6.7968576662    -1.8640459909     2.9754371142
 H      5.6198281976    -2.5109656864     2.0076921436
 F      5.0253271622    -2.9168778072     1.4396315226
 H      4.5575018887     0.1074762792     6.4580605510
 F      5.4340384884     0.0549607825     6.7222852885
 H      2.2836781010    -4.4435477101    -0.3656065329
 F      2.5622748729    -4.4711577231     0.5076119540
 H      2.8935210129    -4.2850474759    -2.3683518410
 F      2.0618507479    -4.3162297326    -1.9833307543
 H      5.6301725575    -3.7602886746     0.1490653838
 F      5.9470725194    -4.1802092578    -0.6020205753
 H      6.2125232311    -1.2170408128     6.0180003460
 F      6.5387332333    -1.9293084585     5.5413969098
 H      5.0866077408    -4.2148872909    -2.0199719606
 F      4.5087161112    -4.2126827873    -2.7319589019
 H      3.1691781886    -1.9003588562     3.1362347065
 F      3.7522473816    -1.5003746680     3.7201285028
          22
Energy: -87.18664530570508 Kcal/mole
 H      2.2224842803    -3.2561227281     1.6031844193
 F      2.0023494781    -2.5813864562     2.1838397665
 H      3.2128158757    -0.5459742900     4.9716825590
 F      3.0864814752    -0.0297902881     5.7189995570
 H      6.7152442838    -1.8921974550     3.8883640973
 F      6.7968894828    -1.8641001306     2.9754382505
 H      5.6226683453    -2.5148465277     2.0074714049
 F      5.0251764989    -2.9166719375     1.4396432323
 H      4.5577771761     0.1096081579     6.4575806995
 F      5.4340238851     0.0548476913     6.7223107436
 H      2.2828410841    -4.4428278078    -0.3653159379
 F      2.5623192747    -4.4711959123     0.5075965386
 H      2.8941816211    -4.2887756156    -2.3672054197
 F      2.0618157041    -4.3160319634    -1.9833915693
 H      5.6283291983    -3.7601199147     0.1481903395
 F      5.9471703053    -4.1802182101    -0.6019741562
 H      6.2120844579    -1.2177355231     6.0187369046
 F      6.5387565092    -1.9292716057     5.5413578371
 H      5.0894230535    -4.2226336983    -2.0223353915
 F      4.5085667653    -4.2122718583    -2.7318335273
 H      3.1657915853    -1.8978626233     3.1379250728
 F      3.7524270331    -1.5005070874     3.7200388328
          22
Energy: -87.1869960970072 Kcal/mole
 H      2.2236123234    -3.2574583625     1.6051704660
 F      2.0022896380    -2.5813156039     2.1837344113
 H      3.2119656975    -0.5438661907     4.9700881687
 F      3.0865265752    -0.0299021179     5.7190841357
 H      6.7164586141    -1.8940400909     3.8884131765
 F      6.7968250654    -1.8640023830     2.9754356469
 H      5.6207210709    -2.5157430012     2.0101439143
 F      5.0252797974    -2.9166243817     1.4395014619
 H      4.5579598724     0.1112989903     6.4573316126
 F      5.4340141934     0.0547579965     6.7223239571
 H      2.2877474932    -4.4430141937    -0.3668768569
 F      2.5620590010    -4.4711860249     0.5076793417
 H      2.8939249084    -4.2881679222    -2.3677180326
 F      2.0618293222    -4.3160642002    -1.9833643764
 H      5.6319143641    -3.7580800780     0.1485597732
 F      5.9469801206    -4.1803264187    -0.6019937538
 H      6.2116516301    -1.2177604813     6.0184776379
 F      6.5387794697    -1.9292702817     5.5413715906
 H      5.0866650260    -4.2187768490    -2.0200416937
 F      4.5087130723    -4.2124764552    -2.7319552027
 H      3.1648845050    -1.9028720361     3.1422994141
 F      3.7524751516    -1.5002413497     3.7198067841
          22
Energy: -87.18594962488702 Kcal/mole
 H      2.2232801909    -3.2592068733     1.6070930685
 F      2.0023072569    -2.5812228494     2.1836324217
 H      3.2091901373    -0.5463151341     4.9713144916
 F      3.0866738123    -0.0297722071     5.7190190821
 H      6.7163545407    -1.8967206344     3.8883116672
 F      6.7968305862    -1.8638601864     2.9754410317
 H      5.6187255468    -2.5140940742     2.0110608148
 F      5.0253856553    -2.9167118535     1.4394528224
 H      4.5566477188     0.1082461294     6.4610678326
 F      5.4340838002     0.0549199437     6.7221257592
 H      2.2820568815    -4.4439006887    -0.3650986348
 F      2.5623608748    -4.4711389984     0.5075850111
 H      2.8933624522    -4.2862758520    -2.3687914643
 F      2.0618591592    -4.3161645701    -1.9833074333
 H      5.6312080077    -3.7523509813     0.1450079603
 F      5.9470175911    -4.1806303341    -0.6018053383
 H      6.2120751686    -1.2166575493     6.0171196555
 F      6.5387570020    -1.9293287897     5.5414436284
 H      5.0886177664    -4.2167245104    -2.0216165915
 F      4.5086094840    -4.2125853271    -2.7318716580
 H      3.1635148393    -1.8963171441     3.1391728045
 F      3.7525478092    -1.5005890715     3.7199726435
          22
Energy: -87.18720261028557 Kcal/mole
 H      2.2215696015    -3.2579012256     1.6049106396
 F      2.0023979997    -2.5812921110     2.1837481945
 H      3.2103243508    -0.5461480822     4.9713858632
 F      3.0866136449    -0.0297810689     5.7190152960
 H      6.7198700500    -1.8948453002     3.8886798555
 F      6.7966440966    -1.8639596685     2.9754215002
 H      5.6205217343    -2.5137203615     2.0089258108
 F      5.0252903717    -2.9167316780     1.4395660794
 H      4.5576989410     0.1128320681     6.4585290060
 F      5.4340280353     0.0546766703     6.7222604381
 H      2.2825831182    -4.4450473955    -0.3653024664
 F      2.5623329592    -4.4710781683     0.5075958239
 H      2.8943572552    -4.2832105398    -2.3663858771
 F      2.0618063872    -4.3163271779    -1.9834350441
 H      5.6305575161    -3.7585388348     0.1482467779
 F      5.9470520982    -4.1803020828    -0.6019771501
 H      6.2090427252    -1.2180134914     6.0170563453
 F      6.5389178661    -1.9292568601     5.5414469869
 H      5.0877257005    -4.2194006460    -2.0209099780
 F      4.5086568060    -4.2124433643    -2.7319091422
 H      3.1666059251    -1.8987913103     3.1377397477
 F      3.7523838342    -1.5004578227     3.7200486638
          22
Energy: -87.18691543111284 Kcal/mole
 H      2.2242220362    -3.2588076576     1.6069855607
 F      2.0022572942    -2.5812440269     2.1836381247
 H      3.2112058736    -0.5459982494     4.9714288084
 F      3.0865668821    -0.0297890171     5.7190130179
 H      6.7185271240    -1.8928057544     3.8886324974
 F      6.7967153357    -1.8640678617     2.9754240124
 H      5.6202932811    -2.5149305778     2.0100187680
 F      5.0253024906    -2.9166674789     1.4395081006
 H      4.5578915447     0.1115881022     6.4576195289
 F      5.4340178181     0.0547426598     6.7223086838
 H      2.2852831265    -4.4446572355    -0.3661512170
 F      2.5621897300    -4.4710988653     0.5076408482
 H      2.8931563711    -4.2898577480    -2.3694954540
 F      2.0618700913    -4.3159745588    -1.9832700883
 H      5.6297407671    -3.7611814186     0.1493815618
 F      5.9470954249    -4.1801618998    -0.6020373478
 H      6.2118277630    -1.2185749589     6.0198103104
 F      6.5387701263    -1.9292270755     5.5413008954
 H      5.0867085684    -4.2150817823    -2.0200544411
 F      4.5087107625    -4.2126724700    -2.7319545265
 H      3.1661923933    -1.9012016143     3.1398138297
 F      3.7524057711    -1.5003299617     3.7199386386
          22
Energy: -87.1872832391512 Kcal/mole
 H      2.2230769499    -3.2577546894     1.6053123288
 F      2.0023180383    -2.5812998844     2.1837268858
 H      3.2082523468    -0.5444528252     4.9698787873
 F      3.0867235599    -0.0298709983     5.7190952429
 H      6.7177578178    -1.8971602640     3.8884182970
 F      6.7967561456    -1.8638368650     2.9754353753
 H      5.6205580747    -2.5161207165     2.0105790115
 F      5.0252884439    -2.9166043448     1.4394783810
 H      4.5572746034     0.1122794916     6.4598214542
 F      5.4340505454     0.0547059832     6.7221918767
 H      2.2843550258    -4.4408398144    -0.3657321757
 F      2.5622389636    -4.4713013707     0.5076186190
 H      2.8945426981    -4.2877852308    -2.3663495015
 F      2.0617965498    -4.3160845011    -1.9834369738
 H      5.6297068488    -3.7570643611     0.1470559565
 F      5.9470972241    -4.1803803002    -0.6019139798
 H      6.2098480854    -1.2178158750     6.0173185703
 F      6.5388751436    -1.9292673432     5.5414330764
 H      5.0886100808    -4.2193735323    -2.0216309554
 F      4.5086098917    -4.2124448026    -2.7318708960
 H      3.1660865084    -1.8987860295     3.1382591342
 F      3.7524113881    -1.5004581029     3.7200211116
          22
Energy: -87.18687800301096 Kcal/mole
 H      2.2217644733    -3.2576805122     1.6047265415
 F      2.0023876622    -2.5813038193     2.1837579605
 H      3.2055080511    -0.5452349269     4.9699765385
 F      3.0868691384    -0.0298295096     5.7190900574
 H      6.7168804454    -1.8924275520     3.8885017561
 F      6.7968026882    -1.8640879245     2.9754309480
 H      5.6209705868    -2.5163082807     2.0102802994
 F      5.0252665611    -2.9165943949     1.4394942269
 H      4.5581790645     0.1065743293     6.4556489532
 F      5.4340025658     0.0550086289     6.7224132182
 H      2.2837178702    -4.4451308845    -0.3656677645
 F      2.5622727632    -4.4710737394     0.5076152022
 H      2.8946978528    -4.2882437028    -2.3660455102
 F      2.0617883192    -4.3160601802    -1.9834530998
 H      5.6306062740    -3.7559953092     0.1468314721
 F      5.9470495117    -4.1804370109    -0.6019020714
 H      6.2123646201    -1.2165587167     6.0171702632
 F      6.5387416473    -1.9293340325     5.5414409438
 H      5.0898967073    -4.2180696256    -2.0226722188
 F      4.5085416391    -4.2125139718    -2.7318156594
 H      3.1659830032    -1.8994455594     3.1388157100
 F      3.7524168788    -1.5004231163     3.7199915865
          22
Energy: -87.18682122109267 Kcal/mole
 H      2.2221742264    -3.2612727944     1.6091073296
 F      2.0023659257    -2.5811132571     2.1835255698
 H      3.2091641807    -0.5459034597     4.9710260164
 F      3.0866751892    -0.0297940455     5.7190343851
 H      6.7145976269    -1.8953066190     3.8882047426
 F      6.7969237865    -1.8639351966     2.9754467038
 H      5.6225793641    -2.5159868105     2.0083699976
 F      5.0251812192    -2.9166114482     1.4395955640
 H      4.5574022357     0.1093437840     6.4587702846
 F      5.4340437748     0.0548617157     6.7222476388
 H      2.2858060479    -4.4391018658    -0.3661300603
 F      2.5621619902    -4.4713935649     0.5076397259
 H      2.8944260096    -4.2882079167    -2.3666341348
 F      2.0618027399    -4.3160620786    -1.9834218746
 H      5.6281768104    -3.7560095532     0.1458078756
 F      5.9471783892    -4.1804362553    -0.6018477720
 H      6.2138827903    -1.2154488560     6.0165445845
 F      6.5386611119    -1.9293929081     5.5414741346
 H      5.0877231651    -4.2172139009    -2.0208900566
 F      4.5086569405    -4.2125593660    -2.7319101990
 H      3.1658902563    -1.8998534686     3.1391896425
 F      3.7524217988    -1.5004014777     3.7199717503
          22
Energy: -87.18763248610394 Kcal/mole
 H      2.2187407929    -3.2601353486     1.6064650429
 F      2.0025480614    -2.5811735959     2.1836657370
 H      3.2078584749    -0.5448230121     4.9700693832
 F      3.0867444539    -0.0298513608     5.7190851322
 H      6.7161592849    -1.8943118269     3.8883777922
 F      6.7968409441    -1.8639879681     2.9754375240
 H      5.6194012440    -2.5133149971     2.0098082529
 F      5.0253498111    -2.9167531817     1.4395192679
 H      4.5576365043     0.1105127870     6.4582359649
 F      5.4340313474     0.0547997028     6.7222759832
 H      2.2839771688    -4.4415227130    -0.3656353946
 F      2.5622590080    -4.4712651445     0.5076134850
 H      2.8944636429    -4.2878855323    -2.3665287745
 F      2.0618007435    -4.3160791803    -1.9834274638
 H      5.6310477503    -3.7565386607     0.1473255552
 F      5.9470260924    -4.1804081874    -0.6019282814
 H      6.2130421766    -1.2178204035     6.0195170983