          5
Energy: -0.01754084590366035 Kcal/mole
 He    -0.8426190372    -6.2509746986    -0.6155628092
 He    -4.5656637549    -2.3725558997     7.0893640500
 He     2.2753641907    -3.2234661109     2.6595915175
 He    -2.8125404288     2.0494643482    -3.3604645924
 He     2.1446820816    -1.5341119923    -0.0428272750
          5
Energy: -0.0014836768860107378 Kcal/mole
 He     2.1625168901     3.2266103394    -2.4693104148
 He    -6.6362095805    -1.2870155355     0.0289895302
 He    -0.5646384648    -5.7475106944    -5.4064658427
 He    -3.6975202835     2.4097051729    -5.6520532030
 He    -5.6438112087     7.3638877861    -4.8932479160
          5
Energy: -0.0210754185616547 Kcal/mole
 He    -5.4791471145     0.0159756071     5.7152947336
 He    -3.3521159403     0.2613673690     4.1227870074
 He    -4.1441934335     1.9215463755    -0.0612001617
 He     3.4821486060    -5.3025663972    -0.5569855593
 He    -3.1923985516    -1.3032780252    -2.5749802291
          5
Energy: -0.015388375495812024 Kcal/mole
 He     0.5796460530     1.3782736358     2.7492108569
 He     6.6240804748    -3.0590572693     5.7587599637
 He    -4.8454764044    -2.0177855092    -1.5344708088
 He     5.0571137206    -5.3296071976     3.5595346912
 He    -2.8487098331     3.0453254234     1.4134067567
          5
Energy: -0.018102438753142148 Kcal/mole
 He    -7.3824293105     0.7159969118     3.9372163861
 He     2.5894860435    -0.1680789740     0.4384195525
 He    -4.9525177603    -1.9570645257     5.6135256417
 He    -0.1716256067    -0.7954412994    -1.4677655007
 He    -1.7259328070    -5.8410011118     3.5523330200
          5
Energy: -0.021476863532734952 Kcal/mole
 He    -0.0979289249     0.2802602074    -2.3026118390
 He    -0.4855287028    -3.7452704224    -5.3529336662
 He     1.3453612544    -6.2111083449    -5.3611953058
 He     4.9216101107    -2.2753926845     5.6822360016
 He     0.7442475559    -5.0378058090    -0.0662818910
          5
Energy: -0.020350214007775404 Kcal/mole
 He     4.6622135911    -6.7983358033     5.3019578716
 He     0.6846209236     0.9469216654     1.8558633668
 He     4.9946135676     4.9474806597    -1.3060844637
 He     7.4592992177    -6.5009940965    -4.3418811063
 He    -1.2701112664     1.3247841620     3.8918917465
          5
Energy: -0.0840848715380693 Kcal/mole
 He     1.6173093914    -5.5242503091    -4.0360017333
 He     2.9696510494     0.5492967167     5.7964090164
 He     5.1334926916    -1.1237874684     5.6481436872
 He     5.1198831598     2.0943566954     4.3947393825
 He     7.3359352604     0.6465564896     6.3771089967
          5
Energy: -0.16264249257341498 Kcal/mole
 He     2.1068920954     1.3818271231     2.9209081767
 He     3.7638061937     0.3836035333     4.8846005932
 He     5.0658028758     1.9396219547     2.9941761201
 He     2.5079954870     4.0167744715     1.9189053953
 He     3.0177139490     3.1323682403     4.8958120878
          5
Energy: -0.18198555776655911 Kcal/mole
 He     1.9669190030     1.2403132527     2.9428815604
 He     3.8200501098     0.3173469016     4.9056588149
 He     4.7365296820     2.0162170223     2.7824890500
 He     2.7016717638     3.9200865652     2.1540555536
 He     3.0773336424     3.0782403619     4.8605564276
