          2
Energy: -1.9505472975343913E-4 Kcal/mole
 He     2.7686922617    -3.3340138137    -4.1120620371
 He     4.2266789860    -2.0362025249     2.5730224881
