          2
Energy: -0.019999999985777735 Kcal/mole
 He     0.6277071839     2.1798115761     6.9312262351
 He     2.4236795980     4.4123486978     7.0776197938
