          2
Energy: -0.01999999999091294 Kcal/mole
 He    -0.7045959357    -0.5216154262     0.2425474227
 He     0.0828602968    -1.8731222193     2.6476724306
