          2
Energy: -0.019999999933287466 Kcal/mole
 He     4.2144619571    -2.9758591915    -3.7648997380
 He     5.6390421230    -2.0118959564    -6.0610762767
