          2
Energy: -3.0761814174523127E-6 Kcal/mole
 He    -3.2326131187    -6.9238371482     2.0644380975
 He     7.0335309878     2.4363642034     2.8059803981
          2
Energy: -2.695684535566615E-6 Kcal/mole
 He    -6.2522087580    -4.8169555331    -5.4810809786
 He     5.0308369050     3.6984381142    -3.9166723087
          2
Energy: -4.5820028651456346E-4 Kcal/mole
 He    -0.4667087931     1.8576127458     0.6645871398
 He    -5.8148504169     3.5874644676    -1.5375357169
          2
Energy: -2.3780471086213606E-6 Kcal/mole
 He     5.1323521757    -5.7769645821     2.4260484330
 He    -6.2466055108     2.6425392210    -0.8189445708
          2
Energy: -8.926206775621586E-6 Kcal/mole
 He    -4.4482871103     6.6358927308     0.0028533317
 He    -2.6813464193    -2.4379970080     7.0910448761
          2
Energy: -9.286693949332426E-4 Kcal/mole
 He     0.4171048392     5.5107319087    -6.1851996743
 He    -2.2739094630     6.1652411226    -1.5949811836
          2
Energy: -1.49828610649009E-5 Kcal/mole
 He     4.2847264416    -5.4893850450     3.4483024199
 He    -1.4929778121    -1.9627468583    -4.8198130075
          2
Energy: -9.742824810089985E-4 Kcal/mole
 He    -2.7663660422    -2.1936389878     1.2826499305
 He    -3.4012130737     0.5604841258    -3.2218534411
          2
Energy: -0.0076728334291010225 Kcal/mole
 He     0.8785592521     1.9525488848     6.5380560249
 He     2.1073455740     5.4425362216     6.7657496466
          2
Energy: -0.019999999985777735 Kcal/mole
 He     0.6277071839     2.1798115761     6.9312262351
 He     2.4236795980     4.4123486978     7.0776197938
