          2
Energy: -0.019999999997145846 Kcal/mole
 He     6.0768747620    -5.7895809562     6.8025053865
 He     5.3821718948    -3.0081437377     6.9131182255
