          3
Energy: -1.9697789392372132E-4 Kcal/mole
 He    -1.5405831008    -0.4078675108    -1.7064348988
 He     3.8416079641    -2.7077023219     2.3942631150
 He    -7.4344091905     6.7681718428     0.8868168755
          3
Energy: -1.856942633390352E-5 Kcal/mole
 He    -0.4889999963     4.1801714298     0.9342285998
 He     2.9235986128    -6.6214163966     2.3583982483
 He    -7.3834001191    -6.5728018680    -4.8844762437
          3
Energy: -4.0162277951689485E-4 Kcal/mole
 He    -5.5551651930     5.5685480949    -5.4454359669
 He     0.5786500328     6.5663520768    -4.6337266869
 He    -3.5396542703    -3.0291449107    -0.8952883861
          3
Energy: -6.22335018240041E-4 Kcal/mole
 He    -4.7427015236     5.4706014194    -2.1603911330
 He     4.7701602132     0.1745918615    -1.2484783825
 He    -5.1247467374     2.8675910534     2.9797979012
          3
Energy: -0.0016796932658938006 Kcal/mole
 He    -7.4061289394    -2.1140103515    -1.2861325207
 He    -3.4449625685     4.8250724624    -4.9835818719
 He     1.4003026264     4.9228669786    -5.5255892116
          3
Energy: -0.0024534351569763845 Kcal/mole
 He    -2.7241538268     2.6262761979    -4.7257499868
 He     0.7986055495    -0.2720581639     0.4205228134
 He    -2.6984227798    -2.1524702493     2.8031931120
          3
Energy: -4.659511998157687E-5 Kcal/mole
 He     6.4754230381    -6.2318285851    -0.2312235387
 He     0.7935722587     4.3219589805    -6.5335785104
 He    -5.6876300515     0.7056929463    -1.3214790372
          3
Energy: -0.027592627057248457 Kcal/mole
 He    -5.9073629078     6.3857365924    -4.9792707772
 He    -4.8372247262     2.6393053337    -4.9460530250
 He    -3.6481642384     6.9491624821    -6.5897611229
          3
Energy: -0.04933818510732651 Kcal/mole
 He    -0.9683261330    -5.7048469865    -2.6458449292
 He     0.0223801594    -5.6433965005     0.0380647336
 He     1.7643705384    -3.8152677651    -1.5854011342
          3
Energy: -0.05999934582593334 Kcal/mole
 He    -0.9203178789    -5.2171446674    -2.3242926004
 He     0.6125905237    -6.1648496216    -0.0942195656
 He     1.6926414274    -4.1463691276    -1.8259039386
