          3
Energy: -0.05999963637928976 Kcal/mole
 He    -3.2744695267     0.9425758967     2.3240104213
 He    -1.7296451131    -1.0449775338     0.9434300366
 He    -4.4690792448    -1.5684801789     1.6167440929
