          3
Energy: -0.05999934582593334 Kcal/mole
 He    -0.9203178789    -5.2171446674    -2.3242926004
 He     0.6125905237    -6.1648496216    -0.0942195656
 He     1.6926414274    -4.1463691276    -1.8259039386
