          3
Energy: -0.05999835917971422 Kcal/mole
 He    -0.8817385675    -0.2486275742     0.8723509802
 He     0.7469803205     1.3913786813     2.5672694471
 He    -0.1150227442    -1.1941118179     3.4668871510
