          3
Energy: -2.8044062921431603E-4 Kcal/mole
 He    -3.2849056539    -2.1503091521    -3.0006079261
 He     4.5153938423    -1.0274590344    -3.1407051970
 He     2.4631872637    -2.1857718820     3.8059571117
