          3
Energy: -3.788229817200263E-5 Kcal/mole
 He     4.9541810556     2.6040779980     7.1182638895
 He     4.0587213778    -4.4620934577     0.1007983468
 He    -5.5907564176     4.4640050261     4.4904902540
          3
Energy: -7.620529698285415E-4 Kcal/mole
 He     4.3511657125    -3.3166185478    -3.8791045586
 He     2.3879303129     1.7762129629    -4.8761495965
 He    -4.5990156282     2.4198815454     7.1559119994
          3
Energy: -2.778764824751991E-4 Kcal/mole
 He    -6.2489213328     5.0946235230    -4.1230139098
 He    -0.0351591637    -3.4939335384     2.8153105705
 He     4.0938611088    -2.5885777124    -2.2591626622
          3
Energy: -7.586449072027458E-4 Kcal/mole
 He    -3.4442177443    -1.6502346267     1.7006285113
 He    -6.1053964677     3.5924432101    -4.7926553350
 He    -7.0613906579     2.2627962218     3.6813373902
          3
Energy: -1.1470916888567227E-5 Kcal/mole
 He     6.8244334471    -1.9211371218     5.8900246446
 He    -4.7280298212    -5.8434009633    -2.5419349564
 He     6.0783924816     5.5851961859    -3.2953592940
          3
Energy: -0.005751100936500206 Kcal/mole
 He    -2.8915435128    -2.7787896698     4.7771477469
 He     0.8670987942    -6.3634061289     5.5732518181
 He    -6.3660673591    -3.4493870673     6.7858106631
          3
Energy: -1.8874404774596497E-4 Kcal/mole
 He    -0.9065163994     6.6588353832    -4.9786481162
 He     2.5634266878     0.4150608922    -6.7430711239
 He     3.3217135686     2.6156111391     2.8987862318
          3
Energy: -2.1426932812877185E-4 Kcal/mole
 He    -1.5146607290     0.3669550633     2.6412265266
 He    -5.8999169223    -6.5267045635     7.1673266668
 He    -0.3931143904    -2.4637581531    -3.7572974707
          3
Energy: -0.0582639294795328 Kcal/mole
 He     2.5810369582    -2.1444571827     1.1253051618
 He     5.1866452685    -3.6965058538     1.2521840843
 He     2.7285608310    -4.8387917234     2.1930218631
          3
Energy: -0.05999967328041262 Kcal/mole
 He     2.8243396273    -2.1962001046     1.1431060723
 He     5.1797447436    -3.8274937323     1.0219971883
 He     2.6953711310    -4.9616596274     1.9013784026
