          3
Energy: -0.05999967328041262 Kcal/mole
 He     2.8243396273    -2.1962001046     1.1431060723
 He     5.1797447436    -3.8274937323     1.0219971883
 He     2.6953711310    -4.9616596274     1.9013784026
