          2
Energy: -0.3169999999492696 Kcal/mole
 Kr     1.1035255594    -5.0188735032    -3.2455662623
 Kr     4.2643007608    -5.0487620858    -5.8059617633
