          2
Energy: -1.769038292895966E-4 Kcal/mole
 Kr    -3.8016422109     3.2710290812    -5.6171240255
 Kr     7.2867117152     0.0344341482     5.3274825685
          2
Energy: -3.156453783966876E-4 Kcal/mole
 Kr    -2.8198171789     4.3554959960    -2.4965897830
 Kr    -3.9031736059    -7.0721734944     6.2780634133
          2
Energy: -0.14661373537421632 Kcal/mole
 Kr    -4.2587986622     4.6844999347    -3.9329848219
 Kr    -6.3989282048     5.7457246571     0.5386136229
          2
Energy: -0.0013795426462327423 Kcal/mole
 Kr     7.3919669509    -5.0533078443    -3.0080222533
 Kr    -0.8101580967    -4.8081574120     4.7581121992
          2
Energy: -0.3149591442074294 Kcal/mole
 Kr     3.7628310768     0.8780070861    -3.8378086916
 Kr     0.0131624456     1.4210160301    -5.1689243210
          2
Energy: -0.002928557345199421 Kcal/mole
 Kr     6.5070496884     0.0711903901    -3.6556394558
 Kr    -1.8314732287    -5.2296810818    -4.9401672812
          2
Energy: -8.443600699923958E-4 Kcal/mole
 Kr     3.0844873844    -4.4207624077     3.1696346335
 Kr    -5.6694486048     3.6339323796     0.1939917046
          2
Energy: -0.3045060692155393 Kcal/mole
 Kr    -5.1425291959    -2.6173662863     5.8569613803
 Kr    -6.2323328755    -4.8197281147     2.4253817842
          2
Energy: -0.2680482380337503 Kcal/mole
 Kr     4.4013696376    -0.7186474547     0.5503998588
 Kr     1.2787377086    -2.0087442757    -2.3004600096
          2
Energy: -0.3169999999483272 Kcal/mole
 Kr     3.7156493081    -0.1095034929     0.2613355297
 Kr     1.8183667941    -2.7649070157    -2.1668690934
