          2
Energy: -0.3169999999483272 Kcal/mole
 Kr     3.7156493081    -0.1095034929     0.2613355297
 Kr     1.8183667941    -2.7649070157    -2.1668690934
