          2
Energy: -0.3169999999377442 Kcal/mole
 Kr     2.1529182522    -6.6495541320    -2.0246961752
 Kr    -0.3579793289    -7.1268159775     1.1398993181
