          2
Energy: -0.0037101085989957243 Kcal/mole
 Kr    -2.1623034393     2.0495908145     4.2907217145
 Kr     0.9499289296     1.7472896033    -4.7622464022
