          2
Energy: -0.031657980613311876 Kcal/mole
 Kr     0.4244493324     1.9738829082    -0.4259004382
 Kr     2.1687837999    -2.0712858113    -5.4400962558
          2
Energy: -1.3708014535016312E-4 Kcal/mole
 Kr    -5.6259857261    -4.7437883792     7.4688749205
 Kr     5.9947479189     2.6712280114    -1.7863089601
          2
Energy: -0.003684059998275754 Kcal/mole
 Kr     0.7583309682     3.7994895485     3.1274786077
 Kr    -1.7104997160     0.8010272172    -5.6397352593
          2
Energy: -3.0093290386295113E-4 Kcal/mole
 Kr     2.6032052927    -4.8891524497     4.4814614204
 Kr    -3.1585562722     2.6426035946    -6.5722022362
          2
Energy: -0.29461402683191207 Kcal/mole
 Kr     5.6665739434    -2.0401507289     2.0088184464
 Kr     3.8084619466    -5.2807823502     3.1675565372
          2
Energy: -1.9929417893086205E-4 Kcal/mole
 Kr     6.6032352763    -6.0500097919    -3.9126664999
 Kr    -4.1672866712    -0.8003374104     6.0765876935
          2
Energy: -0.21074503408592898 Kcal/mole
 Kr    -4.7972882503     6.4057410807     4.4212430818
 Kr    -1.4758586964     4.5929253257     1.6357474617
          2
Energy: -0.23788103176236275 Kcal/mole
 Kr     6.3488547273     0.0809888670     4.9000277159
 Kr     4.5557043586     3.3920089740     2.3185652843
          2
Energy: -0.31695625905451225 Kcal/mole
 Kr    -4.6932501948     0.8305366790    -3.7372962465
 Kr    -6.3339899920    -2.8686120789    -4.2237024815
          2
Energy: -0.3169999998118743 Kcal/mole
 Kr    -4.0318605684     0.4580763744    -3.2970712468
 Kr    -5.8172035247    -3.0502692347    -4.3222364319
