          2
Energy: -0.3169999998118743 Kcal/mole
 Kr    -4.0318605684     0.4580763744    -3.2970712468
 Kr    -5.8172035247    -3.0502692347    -4.3222364319
