          4
Energy: -6.327993310146553 Kcal/mole
 H      5.1898119765     1.7683314142    -3.7843572420
 F      4.2845184656     1.6377069780    -3.8497018332
 H      3.3397113603     2.9954262161    -3.4764227422
 F      2.9931474629     3.8123419856    -3.2452710807
