          4
Energy: -6.327824040013525 Kcal/mole
 H      4.6630287718     1.2606816330    -3.0654207385
 F      4.3933090524     1.6886549322    -3.8302600211
 H      3.1398373664     2.8048787029    -3.6088000068
 F      2.4721931417     3.3573720845    -3.3089813072
