          4
Energy: -6.322219954929892 Kcal/mole
 H      6.3261969552     1.9185220497    -4.6837606117
 F      6.1880928747     2.5903913347    -4.0751491373
 H      5.1027122547     3.8090290968    -4.5199867655
 F      4.5131278968     4.3830478649    -4.9246863316
          4
Energy: -6.32211922048549 Kcal/mole
 H      7.1141124607     3.4833519735    -3.2785487406
 F      6.3187001609     3.0921232154    -3.5133855612
 H      5.1430273214     4.1160235526    -4.1992035864
 F      4.6144080816     4.7862990206    -4.5341386491
          4
Energy: -6.296537057101659 Kcal/mole
 H      5.3950624548     1.9873265355    -3.9424698194
 F      5.7544296498     2.7174846685    -3.5198431283
 H      5.1600872811     4.1931976504    -4.1950214203
 F      4.7474403559     4.8345700737    -4.7041902821
          4
Energy: -6.323545958367674 Kcal/mole
 H      5.8176884164     1.8784489141    -4.2346317522
 F      5.9156326215     2.6647158435    -3.7730255907
 H      5.2649016719     4.0519180029    -4.5228962116
 F      4.8795675010     4.6747779938    -5.0746679111
          4
Energy: -6.319332196780863 Kcal/mole
 H      6.7248698819     2.5910159119    -3.3731341837
 F      5.8953846918     2.5486909193    -3.7617881613
 H      5.2326162900     4.0643067917    -4.1962799295
 F      5.0667449318     4.9545926802    -4.3403865885
          4
Energy: -6.316865066954506 Kcal/mole
 H      7.1191495471     2.5687188827    -3.9177518156
 F      6.2130279871     2.5259301946    -3.7835808555
 H      5.4598017470     4.0453345604    -3.9302388917
 F      5.2505945446     4.9255118892    -4.0799359737
          4
Energy: -6.319831755925463 Kcal/mole
 H      5.9371318893     1.9884095651    -3.9291655265
 F      6.2327644235     2.6533676236    -3.3712038924
 H      5.4136840278     4.1540624134    -3.5164304820
 F      4.8795102677     4.8700950830    -3.7234198781
          4
Energy: -6.32732050161809 Kcal/mole
 H      6.9154064684     2.4504186473    -3.3985312919
 F      6.0431389010     2.4818357786    -3.1173707419
 H      5.1381644823     3.7764377607    -3.7400365016
 F      4.8176434374     4.5211503309    -4.1684737170
          4
Energy: -6.31569129098898 Kcal/mole
 H      5.5902842066     2.1221794765    -2.5837884771
 F      6.1345351573     2.4061924339    -3.2649760744
 H      5.5184730846     3.7924920259    -4.0510477414
 F      5.0547115592     4.5270277157    -4.3447679620
          4
Energy: -6.315310552381334 Kcal/mole
 H      6.0918629845     2.7259957972    -2.4186196011
 F      5.7763479460     2.1204942756    -3.0307528937
 H      4.9475215843     2.8695849897    -4.3348061593
 F      4.5475034068     3.4454355027    -4.9257973981
          4
Energy: -6.308757636766643 Kcal/mole
 H      5.6504964705     1.5107950605    -2.7876344388
 F      5.4786723476     1.4369277562    -3.6853588353
 H      4.1417470355     2.3187881311    -4.2721657962
 F      3.4119063200     2.8662252634    -4.3645460769
          4
Energy: -6.315959301466364 Kcal/mole
 H      4.6396381699     0.5411920880    -2.9589217915
 F      5.0628159165     1.0467024585    -3.5963140255
 H      4.1487970643     2.3515200883    -4.1192436573
 F      3.5144514663     2.9875475248    -4.3035362574
          4
Energy: -6.323668030979206 Kcal/mole
 H      4.9543170420     1.0067966623    -2.2990602695
 F      4.8780870940     1.1200550430    -3.2058405815
 H      3.7993395832     2.3216720273    -3.7190245692
 F      3.2024492734     3.0075802783    -3.8379397880
          4
Energy: -6.32673038256371 Kcal/mole
 H      4.6666473418     0.3034391632    -2.7952320278
 F      4.9792343720     1.0408434711    -3.2417891184
 H      3.8307108732     1.8266455567    -4.2221140249
 F      3.0907133682     2.1147646830    -4.6806770650
          4
Energy: -6.2967400480621905 Kcal/mole
 H      4.4296391162     0.1605086196    -3.1553955383
 F      4.8210063450     0.6519918249    -3.8233513387
 H      3.8788569701     1.9466996339    -4.4159779526
 F      3.2472178454     2.5600620326    -4.6723128587
          4
Energy: -6.325022760699824 Kcal/mole
 H      5.7174087157     0.9524099247    -4.6528679993
 F      5.0710859702     0.5677971727    -4.1282453352
 H      3.5381427839     1.2819854500    -4.1973021185
 F      2.7737325727     1.7665597071    -4.3447938753
          4
Energy: -6.3249739677982575 Kcal/mole
 H      4.7929454043     0.0031864377    -4.6279820571
 F      4.7813421174     0.9143031157    -4.7310391423
 H      3.3712329411     1.6910771590    -4.1874162262
 F      2.5528128289     1.9194422046    -3.8425583920
          4
Energy: -6.309891685960395 Kcal/mole
 H      5.5811102786     0.9760383740    -4.5767717396
 F      4.7148037995     0.8300774768    -4.8396357744
 H      3.4988973002     1.7178605802    -4.0325477473
 F      3.0171740311     2.2989557227    -3.5118173687
          4
Energy: -6.321528572084219 Kcal/mole
 H      5.3126265442    -0.1539751046    -4.1286380641
 F      4.4989475916     0.1379942849    -4.4345292830
 H      3.5444976872     0.9943993613    -3.3041474588
 F      3.1668255881     1.4043941461    -2.5760286072
          4
Energy: -6.321188177402803 Kcal/mole
 H      5.5425136256     1.0314980684    -4.7831398289
 F      4.7423948118     0.5849526045    -4.7471393779
 H      3.7259254533     1.1922343305    -3.5402195330
 F      3.3170441147     1.6597683798    -2.8655959611
          4
Energy: -6.319293677172709 Kcal/mole
 H      4.1539202974     0.0690586377    -5.1396117768
 F      4.7904445504     0.5082812472    -4.6468548646
 H      4.1625977450     1.5609328922    -3.4678938205
 F      3.6406410346     2.0384016424    -2.8843925051
          4
Energy: -6.32249279133066 Kcal/mole
 H      3.9261000016     0.7511643104    -5.4442405545
 F      4.4495767895     0.5860826926    -4.7096596454
 H      4.1575810204     1.5719271900    -3.3638908369
 F      3.8501976200     2.1848865700    -2.7550515776
          4
Energy: -6.318948171629074 Kcal/mole
 H      4.3324354949    -0.2964501478    -4.0972347286
 F      4.7621055045     0.4545476019    -4.4010028355
 H      4.2248323851     1.9040043014    -3.6944610731
 F      3.7834153993     2.5618785886    -3.2326803167
          4
Energy: -6.320536025240983 Kcal/mole
 H      4.7809052511     0.4096279318    -5.2311949776
 F      4.9604116703     0.4011911257    -4.3319757241
 H      4.2188398385     1.5835819673    -3.3893585436
 F      3.7363865704     2.2703138261    -3.0198626732
          4
Energy: -6.3152179678895095 Kcal/mole
 H      4.7662645930    -0.4846031491    -3.6909854888
 F      5.1735459460     0.3021867161    -3.9275707960
 H      4.5010219090     1.7110502344    -3.2180014726
 F      3.9916077857     2.3279652629    -2.7698920009
          4
Energy: -6.32107401633499 Kcal/mole
 H      5.0793233401    -0.1695944183    -2.8041135864
 F      5.2496542172     0.3038475944    -3.5707484753
 H      4.4639137369     1.8140650447    -3.5854121049
 F      3.9746692369     2.5728611407    -3.4249212830
          4
Energy: -6.3191636570288665 Kcal/mole
 H      4.3731172629    -0.2969984044    -4.4838343878
 F      5.0802080326     0.2200578595    -4.2126066910
 H      4.7893580975     1.8894303622    -4.2507458735
 F      4.4290662243     2.7276862463    -4.3424292361
          4
Energy: -6.323631051064297 Kcal/mole
 H      3.6151127398    -0.1200847515    -4.2753045476
 F      4.4761312483     0.1936664731    -4.3084149275
 H      4.5539204940     1.8780011191    -4.4513145433
 F      4.4142374897     2.7804774546    -4.5344657441
          4
Energy: -6.324124893679368 Kcal/mole
 H      3.4406481846     0.3012911620    -3.2361382204
 F      4.3148182247     0.5289897833    -3.3938375506
 H      4.5660037327     2.0886951611    -4.0260925083
 F      4.5190246916     2.9339812291    -4.3784750178
          4
Energy: -6.312720332323522 Kcal/mole
 H      4.8858028736     0.3757147149    -2.6587352435
 F      4.3283776886     0.4679936092    -3.3809891939
 H      4.2403717729     2.0068272558    -4.1355796831
 F      4.2911908639     2.8726796507    -4.4332473676
          4
Energy: -6.3256101449186986 Kcal/mole
 H      5.0844759853     0.0697613487    -3.6552872987
 F      4.4998154107     0.6235708009    -3.2167030957
 H      4.2096673812     2.1149069371    -3.9562179960
 F      4.1568566065     2.8709369666    -4.4724724067
          4
Energy: -6.326696828291404 Kcal/mole
 H      3.7580418305    -0.0599229282    -3.5314713437
 F      4.5685695262     0.3675479470    -3.4967941839
 H      4.5739709543     1.9455637918    -4.1240224237
 F      4.4090304417     2.7655794976    -4.4998653025
          4
Energy: -6.31930795936222 Kcal/mole
 H      4.3726857235    -0.1996416599    -3.7328203733
 F      4.5968827799     0.5617760182    -3.2736169332
 H      4.2587081148     2.0640242830    -4.0239195119
 F      4.0007988619     2.7606056669    -4.5616426683
          4
Energy: -6.3186015928747 Kcal/mole
 H      3.5798947368     0.0300965100    -3.0429816956
 F      4.3085537628     0.5365018876    -3.2742793770
 H      3.8670333151     2.0085815821    -3.9606590118
 F      3.4637485576     2.7561191502    -4.3062570277
          4
Energy: -6.30964249379133 Kcal/mole
 H      4.9861486697     0.7278822443    -2.8686242898
 F      4.3450356738     0.4960088227    -3.4818924553
 H      3.3927116148     1.7400472058    -4.1471490870
 F      2.9765008214     2.5288382557    -4.3603772628
          4
Energy: -6.322504649969062 Kcal/mole
 H      3.7360294577    -0.2372957779    -3.5197031410
 F      4.2781893654     0.4965573415    -3.4279903629
 H      3.6476600758     1.8711974767    -4.1773474658
 F      3.1475950931     2.5016350316    -4.6170888699
          4
Energy: -6.312971380194028 Kcal/mole
 H      4.2218983724     0.2309561167    -2.9149133922
 F      4.6456054356     0.7480677680    -3.5425732242
 H      3.7355397305     1.8835120626    -4.4173489134
 F      3.1041730740     2.4479143597    -4.7690806179
          4
Energy: -6.3269521322117726 Kcal/mole
 H      4.3615753737     0.8657376094    -2.3470493619
 F      4.7633991370     1.2029214818    -3.0992020721
 H      3.7127059086     2.0550647616    -4.1161873968
 F      3.0089029986     2.4653764216    -4.5371325306
          4
Energy: -6.318195961764616 Kcal/mole
 H      4.5135891597     1.5556374838    -2.1425096732
 F      4.7164003690     1.2060955313    -2.9656603500
 H      4.0664968654     2.1365986563    -4.2420746181
 F      3.6308980177     2.7586581215    -4.7560635924
          4
Energy: -6.325741870517504 Kcal/mole
 H      4.6943080471     2.0015224557    -2.1914356195
 F      4.6735000087     1.3976424845    -2.8812073251
 H      3.9839008145     1.9466624281    -4.3390800013
 F      3.5835552520     2.3912944059    -5.0340007413
          4
Energy: -6.320520996005371 Kcal/mole
 H      4.1299368469     1.3658670240    -2.2107454227
 F      4.7362729179     1.4472254140    -2.8938459873
 H      4.0323171575     2.1012415960    -4.2914879468
 F      3.4690608737     2.4644228029    -4.9173719374
          4
Energy: -6.319534932685428 Kcal/mole
 H      5.5570211582     1.1099138367    -3.2514108728
 F      5.0485327325     1.8354714911    -3.0149904610
 H      3.7234689292     2.1253446320    -4.0221148917
 F      3.0872537636     2.1493598541    -4.6820713540
          4
Energy: -6.327253202352949 Kcal/mole
 H      4.5355778539     1.3040268096    -2.2946829525
 F      4.7860917804     1.9748745130    -2.8674788424
 H      3.5829382156     2.4174952736    -3.9779542823
 F      2.8324658902     2.5259101054    -4.4936349131
          4
Energy: -6.325094990832952 Kcal/mole
 H      4.6653166162     0.9231705683    -2.7366438710
 F      4.8678287158     1.7491425954    -3.0796425006
 H      3.5792001322     2.4574273320    -3.9303919992
 F      2.7853840340     2.6593926826    -4.3426479870
          4
Energy: -6.318084915629868 Kcal/mole
 H      4.6921263714     1.6877453887    -2.2148570956
 F      4.8147128245     1.7051567073    -3.1234595431
 H      3.4495250102     2.0512772211    -4.0481820193
 F      2.6139511780     2.2498403425    -4.3695510561
          4
Energy: -6.326440904325352 Kcal/mole
 H      4.7615587731     0.9715489387    -2.4832900988
 F      4.7965655038     1.5698624056    -3.1773250577
 H      3.2786551251     2.0860356697    -3.7407483643
 F      2.3898935381     2.2350789951    -3.9103889507
          4
Energy: -6.317456177672682 Kcal/mole
 H      4.7729007268     0.7582080971    -2.4966460906
 F      4.8509997168     1.5770631737    -2.9019434028
 H      3.3678493861     2.1844830850    -3.4955550199
 F      2.4917080182     2.3479702288    -3.7112799773
          4
Energy: -6.327789327343282 Kcal/mole
 H      4.7475397086     1.6987305273    -1.8632481384
 F      4.7815911041     1.6617139880    -2.7788677528
 H      3.3481318703     2.1005964974    -3.5646403312
 F      2.5073292517     2.3632355225    -3.8195142199
          4
Energy: -6.326793769572532 Kcal/mole
 H      4.8626343352     1.7695008721    -2.0383905032
 F      4.7349069039     1.4267718840    -2.8792897505
 H      3.3767965761     2.0149116622    -3.7114178471
 F      2.6097376431     2.4225206948    -4.0052961720
          4
Energy: -6.3195733580041065 Kcal/mole
 H      4.5393465259     1.5758978295    -1.7688734784
 F      4.6599973328     1.4707322447    -2.6717979396
 H      3.4198276893     2.0022137738    -3.7151895637
 F      2.6672470276     2.3422529175    -4.1137930365
          4
Energy: -6.3246054036474675 Kcal/mole
 H      4.9433294479     0.5450983457    -3.1842801284
 F      4.7012723589     1.3534683933    -2.8253438780
 H      3.2907668545     1.9911889844    -3.4942100469
 F      2.5314713389     2.1771778786    -3.9735506891
          4
Energy: -6.324017429360595 Kcal/mole
 H      4.7515764966     0.4804878428    -3.3069631307
 F      4.6099760971     1.2815967711    -2.8838049902
 H      3.1254022191     1.9741733405    -3.2854271461
 F      2.2975784196     2.1956348977    -3.6118494732
          4
Energy: -6.321706100555787 Kcal/mole
 H      4.5119830500     0.3067268207    -3.2062179083
 F      4.4242429490     1.1287846448    -2.8094665901
 H      2.9776524117     1.9265295016    -3.2266286347
 F      2.1588531206     2.1963980363    -3.5390829431
          4
Energy: -6.324934187458325 Kcal/mole
 H      4.7301742958     0.5797264896    -3.5663883185
 F      4.3697603370     1.0317850066    -2.8546061359
 H      2.8498428975     1.7247882640    -3.1536961989
 F      2.0609394837     2.0402566520    -3.4986601097
          4
Energy: -6.325762671916607 Kcal/mole
 H      4.7965805387     0.5583862946    -3.2946462011
 F      4.3935899533     1.1039741209    -2.6775388264
 H      2.8597027647     1.6783486719    -3.1250200237
 F      2.0628985564     1.9069845067    -3.5170885238
          4
Energy: -6.3277082213217 Kcal/mole
 H      5.0474021837     1.2980116298    -3.2746354090
 F      4.3899645897     1.1278949418    -2.6584170042
 H      2.8025473560     1.3941533631    -3.1997551959
 F      2.0281993147     1.5904962535    -3.6500035499
          4
Energy: -6.327385331977155 Kcal/mole
 H      4.4912617568     1.4767157510    -1.8540030467
 F      4.4256449885     1.0930626987    -2.6843004483
 H      2.9441033908     1.3727374149    -3.4602319758
 F      2.1004574512     1.6255886212    -3.7156077697
          4
Energy: -6.324079851742908 Kcal/mole
 H      4.3039926625     1.2773136391    -1.6755535371
 F      4.3974631195     1.1934022767    -2.5839098312
 H      2.9446961477     1.4027109016    -3.4565550580
 F      2.0869454121     1.5349020915    -3.7526600476
          4
Energy: -6.325106265319619 Kcal/mole
 H      4.3006342350     1.6306686032    -1.7104638770
 F      4.3710725854     1.2760265103    -2.5531716702
 H      2.9679528124     1.4257570113    -3.5010689386
 F      2.1406014518     1.6116076938    -3.8501223012
          4
Energy: -6.327647454458656 Kcal/mole
 H      4.1389886175     0.8674590946    -1.7078379897
 F      4.3212497190     1.3026433195    -2.4941487307
 H      2.9770128012     1.5466769904    -3.4924405246
 F      2.1542964328     1.5905587039    -3.8950584234
          4
Energy: -6.324357341996631 Kcal/mole
 H      4.2248528836     0.4734866748    -2.1815850318
 F      4.2995980819     1.2935377583    -2.5850926225
 H      2.9162406504     1.7171605516    -3.4658269295
 F      2.1043273461     1.7805837555    -3.8873281555
          4
Energy: -6.326987724008518 Kcal/mole
 H      4.1097797655     0.5765115875    -1.9151906965
 F      4.2888052486     1.1527711239    -2.6056715602
 H      2.9418067956     1.6175370052    -3.5295852771
 F      2.1198036124     1.7693844669    -3.9066026709
          4
Energy: -6.327377883076963 Kcal/mole
 H      4.2529454183     0.3179328999    -2.3063783218
 F      4.2827011622     1.1919374490    -2.5822762084
 H      2.9190182967     1.6940097393    -3.4471250786
 F      2.1220122421     1.7931850784    -3.8896571125
          4
Energy: -6.327409357304759 Kcal/mole
 H      4.7025481204     0.5651936537    -2.9600584886
 F      4.2469681597     1.2202400500    -2.5081180965
 H      2.8614528581     1.7752165640    -3.3123894878
 F      2.1660646912     1.9490029029    -3.8843358190
          4
Energy: -6.327106900021988 Kcal/mole
 H      5.0511764396     1.3316842066    -3.0385967428
 F      4.2880997985     1.2165708594    -2.5432665931
 H      2.8590255361     1.6978835945    -3.3052558185
 F      2.1946560123     2.0036700667    -3.8584255658
          4
Energy: -6.325446438037545 Kcal/mole
 H      5.0527364252     1.5651938813    -2.9189530155
 F      4.2912861487     1.2062260818    -2.5553260151
 H      2.8630862358     1.6854239158    -3.3366271515
 F      2.2088197371     2.0583735928    -3.8598220359
          4
Energy: -6.3265382892590765 Kcal/mole
 H      4.9767103495     1.1014166113    -3.0703015092
 F      4.2856280295     1.2895977333    -2.4976916139
 H      2.8482166448     1.8266970221    -3.2302339478
 F      2.1688483751     2.1075707359    -3.7783741772
          4
Energy: -6.327808511603507 Kcal/mole
 H      5.0009913508     1.7889199340    -2.7000642917
 F      4.2958973892     1.2192514694    -2.5614665073
 H      2.8555693040     1.6830725560    -3.3212135405
 F      2.1754465221     2.0767131846    -3.7938328980
          4
Energy: -6.326983063896876 Kcal/mole
 H      4.8640253653     1.8858854541    -2.3579878137
 F      4.2679198585     1.2126402748    -2.5376768602
 H      2.8677783796     1.6801077772    -3.3618951691
 F      2.1829006173     2.1021805616    -3.8019929030
          4
Energy: -6.327331754290412 Kcal/mole
 H      4.8053040032     1.9053783320    -2.2365342229
 F      4.2497376293     1.2284844142    -2.5086548360
 H      2.8739775058     1.7079860298    -3.3739739991
 F      2.1976756385     2.1375678684    -3.8200280635
          4
Energy: -6.327955741300514 Kcal/mole
 H      4.9620833843     1.8548804969    -2.5579738057
 F      4.2584502893     1.2709347298    -2.4887148082
 H      2.8592919235     1.7502237805    -3.3170172865
 F      2.2055073138     2.1592552393    -3.8131502826
          4
Energy: -6.327404216885725 Kcal/mole
 H      4.9013870844     1.9219224543    -2.3803258988
 F      4.2716921768     1.2674096358    -2.5067628150
 H      2.8792103341     1.7410292515    -3.3527079309
 F      2.2044506881     2.1597429878    -3.8112569764
          4
Energy: -6.327722141371396 Kcal/mole
 H      4.9063849049     1.9201574092    -2.3974124250
 F      4.2714270540     1.2675032674    -2.5058564143
 H      2.8784552271     1.7534196558    -3.3396417115
 F      2.2059465716     2.1753970264    -3.7985057513
          4
Energy: -6.327920842164303 Kcal/mole
 H      4.8908007960     1.9323050959    -2.3822811757
 F      4.2722537550     1.2668588607    -2.5066590921
 H      2.8766787825     1.7485313658    -3.3415688005
 F      2.2060408078     2.1756563389    -3.7984035237
          4
Energy: -6.327992826835214 Kcal/mole
 H      4.8930848542     1.9295666908    -2.3790861245
 F      4.2721325910     1.2670041268    -2.5068285822
 H      2.8771582783     1.7485562865    -3.3422502060
 F      2.2060153717     2.1756550169    -3.7983673767
