          4
Energy: -0.27780913373989335 Kcal/mole
 H      3.3138987554    -3.2474481154     4.8954786996
 F      2.5609676050    -3.2474481154     4.3720441930
 H     -2.1830209217    -3.9543974289     0.0829937266
 F     -3.0916515145    -3.9543974289    -0.0406163284
