          4
Energy: -6.327946504882732 Kcal/mole
 H      5.1650120839     1.7545968671    -3.9525672479
 F      4.2683254034     1.6045510381    -3.8328665955
 H      3.3468134120     2.9875137406    -3.4938858267
 F      3.0094656621     3.8232740174    -3.3247992946
          4
Energy: -6.327790555851379 Kcal/mole
 H      5.1268508889     1.7697977741    -4.1070225163
 F      4.2703497666     1.6037446651    -3.8246731005
 H      3.3537760424     2.9862258700    -3.4719782384
 F      3.0090963106     3.8233423360    -3.3259614416
          4
Energy: -6.327744370320033 Kcal/mole
 H      5.1425271220     1.7685309565    -4.0546349023
 F      4.2695181787     1.6038118669    -3.8274521423
 H      3.3500965960     2.9864002398    -3.4813010776
 F      3.0092914968     3.8233330861    -3.3254668865
          4
Energy: -6.32670793949768 Kcal/mole
 H      5.1720191761     1.7305439547    -3.9238350648
 F      4.2679536934     1.6058269895    -3.8343907714
 H      3.3487676393     2.9891578307    -3.4980392846
 F      3.0093619948     3.8231868023    -3.3245789633
          4
Energy: -6.327973876160229 Kcal/mole
 H      5.1243569949     1.7821740848    -4.1351401452
 F      4.2789600183     1.6099848349    -3.8244251406
 H      3.3557352168     2.9858755759    -3.4651635278
 F      3.0089923810     3.8233609183    -3.3263229462
          4
Energy: -6.327690339916842 Kcal/mole
 H      5.0525123126     1.7810368026    -4.2846291549
 F      4.2827712126     1.6100451651    -3.8164950941
 H      3.3689001159     2.9880403999    -3.4427660663
 F      3.0082940135     3.8232460794    -3.3275110798
          4
Energy: -6.327665474051798 Kcal/mole
 H      5.1506847770     1.7784251162    -4.0396404486
 F      4.2699821425     1.6182160436    -3.8406808483
 H      3.3523064918     3.0012743177    -3.4753334410
 F      3.0178274506     3.8380529113    -3.3055855216
          4
Energy: -6.327538336669704 Kcal/mole
 H      4.9138511398     1.7604463518    -4.4681290657
 F      4.2770997554     1.6196412546    -3.8234503868
 H      3.3869500843     3.0045050174    -3.4030215660
 F      3.0159896880     3.8378815302    -3.3094214995
          4
Energy: -6.327661034635355 Kcal/mole
 H      5.0469818542     1.7788388684    -4.2927443091
 F      4.2700374786     1.6186655741    -3.8327541429
 H      3.3753814637     3.0007951750    -3.4189262954
 F      3.0266621853     3.8384615748    -3.2862655721
          4
Energy: -6.327848995890861 Kcal/mole
 H      5.1652751776     1.7843936641    -4.0131785361
 F      4.2795273289     1.6255563754    -3.8367969491
 H      3.3607398340     3.0030257799    -3.4629397299
 F      3.0274388899     3.8383432464    -3.2839307611
          4
Energy: -6.327816214617428 Kcal/mole
 H      5.1255190046     1.8008977304    -4.1425042755
 F      4.2816363020     1.6246808728    -3.8299365175
 H      3.3677782240     3.0010052697    -3.4384904450
 F      3.0270655196     3.8384504298    -3.2852277391
          4
Energy: -6.327918005662411 Kcal/mole
 H      5.0470493782     1.7915881636    -4.2799019012
 F      4.2611263716     1.6229930626    -3.8385520179
 H      3.3631255794     3.0026798917    -3.4276552479
 F      3.0163669520     3.8404521201    -3.2905963276
          4
Energy: -6.327703943444476 Kcal/mole
 H      5.1589596365     1.7692385715    -3.9132014366
 F      4.2551897910     1.6241786568    -3.8580046302
 H      3.3433755989     3.0076955255    -3.4911821934
 F      3.0174146428     3.8401860523    -3.2872263699
          4
Energy: -6.32780356228767 Kcal/mole
 H      5.1349820409     1.7919370883    -4.0519943045
 F      4.2564617470     1.6229745529    -3.8506419892
 H      3.3456565495     3.0026043370    -3.4648912303
 F      3.0172936436     3.8404561281    -3.2886210447
          4
Energy: -6.327471521909729 Kcal/mole
 H      5.0758728740     1.7924368975    -4.2520133547
 F      4.2650388716     1.6299115550    -3.8557524136
 H      3.3664001314     3.0070982277    -3.4450933431
 F      3.0161932445     3.8402177376    -3.2896712769
          4
Energy: -6.327890863052801 Kcal/mole
 H      5.0427431965     1.8097569499    -4.3197235717
 F      4.2821205493     1.6344354201    -3.8384704681
 H      3.3698448001     2.9987036373    -3.4182683155
 F      3.0099718255     3.8308110612    -3.2805088252
          4
Energy: -6.327546624788226 Kcal/mole
 H      5.0753335011     1.8106011136    -4.2676421302
 F      4.2904076350     1.6318459109    -3.8285214608
 H      3.3613948622     2.9956708490    -3.4210412559
 F      2.9953189945     3.8246032740    -3.2805119213
          4
Energy: -6.327951011445521 Kcal/mole
 H      5.0194633447     1.8117201641    -4.3394458065
 F      4.2888427047     1.6342326062    -3.8144880489
 H      3.3662332381     2.9949904547    -3.4031329419
 F      2.9950623299     3.8246393673    -3.2814619160
          4
Energy: -6.327805951827429 Kcal/mole
 H      5.0655948871     1.8173315421    -4.2657274337
 F      4.2863955330     1.6339349356    -3.8183986382
 H      3.3606479305     2.9948489564    -3.4181019544
 F      2.9953586175     3.8246468735    -3.2806678444
          4
Energy: -6.327737017291724 Kcal/mole
 H      5.1345214908     1.8200137167    -4.1106623920
 F      4.2827391360     1.6337926524    -3.8266244804
 H      3.3517154498     2.9951426206    -3.4412568349
 F      2.9958324650     3.8246312953    -3.2794395315
          4
Energy: -6.327858591544327 Kcal/mole
 H      5.1104783956     1.8201278725    -4.1741463421
 F      4.2840145666     1.6337865967    -3.8232568035
 H      3.3509808495     2.9926955055    -3.4298864059
 F      2.9958714338     3.8247611091    -3.2800427065
          4
Energy: -6.327812441776587 Kcal/mole
 H      5.0056043298     1.8122936509    -4.3664376526
 F      4.2837939982     1.6360375539    -3.8290247448
 H      3.3660999100     2.9957940932    -3.4088740113
 F      2.9950694026     3.8245967362    -3.2811573655
          4
Energy: -6.327538058487448 Kcal/mole
 H      5.0069885361     1.8262168105    -4.3597768263
 F      4.2837205693     1.6352989625    -3.8293780862
 H      3.3639012147     2.9943006364    -3.4054936038
 F      2.9951860383     3.8246759606    -3.2813366883
          4
Energy: -6.327653328857139 Kcal/mole
 H      5.0823803707     1.8291237426    -4.2347573911
 F      4.2797212067     1.6351447565    -3.8360100784
 H      3.3502310710     2.9923614243    -3.4298057739
 F      2.9959112078     3.8247788313    -3.2800469839
          4
Energy: -6.32758431526122 Kcal/mole
 H      5.0473051015     1.8112839417    -4.3054054733
 F      4.2815818687     1.6360911167    -3.8322623609
 H      3.3614336261     2.9948111839    -3.4157622306
 F      2.9953169382     3.8246488772    -3.2807919614
          4
Energy: -6.3272027560367405 Kcal/mole
 H      5.0523550058     1.8280066851    -4.2904524273
 F      4.2813139829     1.6352040138    -3.8330555854
 H      3.3609485737     2.9941747082    -3.4131353093
 F      2.9953426691     3.8246826408    -3.2809313135
          4
Energy: -6.327376762920153 Kcal/mole
 H      5.0456932923     1.8098203014    -4.3085397276
 F      4.2816673714     1.6361687594    -3.8320960959
 H      3.3601891525     2.9950630528    -3.4205893349
 F      2.9953829546     3.8246355162    -3.2805358946
          4
Energy: -6.327436199112583 Kcal/mole
 H      4.9897717470     1.8050478929    -4.3892712827
 F      4.2846338802     1.6364219246    -3.8278134735
 H      3.3744873790     2.9986198767    -3.4023465192
 F      2.9946244668     3.8244468349    -3.2815036339
          4
Energy: -6.327876767863643 Kcal/mole
 H      5.0374410444     1.8217749610    -4.3171016738
 F      4.2821051341     1.6355345923    -3.8316419045
 H      3.3599613621     2.9939995064    -3.4147503972
 F      2.9953950384     3.8246919348    -3.2808456368
          4
Energy: -6.327803486980315 Kcal/mole
 H      5.1567740513     1.8160245463    -4.0266670184
 F      4.2757747938     1.6358396386    -3.8470487918
 H      3.3319412593     2.9928059637    -3.4607765071
 F      2.9778292751     3.8190467500    -3.2796139676
          4
Energy: -6.3278690481719195 Kcal/mole
 H      5.1047489441     1.8260766117    -4.1876039855
 F      4.2785346055     1.6353063997    -3.8385114576
 H      3.3404351807     2.9899371400    -3.4330466797
 F      2.9792416181     3.8172755576    -3.2719896928
          4
Energy: -6.327736198666855 Kcal/mole
 H      5.1383775038     1.8149709346    -4.1008355484
 F      4.2767506882     1.6358955302    -3.8431143227
 H      3.3356705941     2.9905443725    -3.4462094333
 F      2.9794943684     3.8172433453    -3.2712914391
          4
Energy: -6.327669324244084 Kcal/mole
 H      5.1819264194     1.7656475902    -3.8232713259
 F      4.2744405188     1.6385120197    -3.8578384633
 H      3.3320688085     2.9994616187    -3.4897130706
 F      2.9796854348     3.8167703060    -3.2689836717
          4
Energy: -6.327796311342752 Kcal/mole
 H      5.1710078622     1.8097306635    -3.9408862745
 F      4.2750197230     1.6361735145    -3.8515992621
 H      3.3258759294     2.9933383606    -3.4769821206
 F      2.9798819416     3.8188869729    -3.2778674571
          4
Energy: -6.3278024100992525 Kcal/mole
 H      5.1830154319     1.7861001410    -3.8505477076
 F      4.2775684663     1.6410142307    -3.8527547601
 H      3.3296000781     2.9985768641    -3.4915590270
 F      2.9796843842     3.8186090824    -3.2770941859
          4
Energy: -6.32790057275605 Kcal/mole
 H      5.1671748588     1.7246710077    -3.6522750638
 F      4.2784087721     1.6442729043    -3.8632726657
 H      3.3312447330     3.0076389807    -3.5211655214
 F      2.9795971390     3.8181283580    -3.2755236298
          4
Energy: -6.327944266038344 Kcal/mole
 H      5.1753465668     1.7469839447    -3.7030372506
 F      4.2779752818     1.6430892545    -3.8605798490
 H      3.3291210711     3.0040572482    -3.5121774780
 F      2.9797097944     3.8183183607    -3.2760004247
          4
Energy: -6.327726261665532 Kcal/mole
 H      5.1830760600     1.7846524914    -3.8354116583
 F      4.2775652501     1.6410910252    -3.8535576926
 H      3.3258114382     2.9966619795    -3.4908046704
 F      2.9708569610     3.8158950896    -3.2816314635
          4
Energy: -6.327979854723026 Kcal/mole
 H      5.1781677597     1.7602119583    -3.7310677236
 F      4.2778256241     1.6423875390    -3.8590928972
 H      3.3240533868     3.0012385139    -3.5106593258
 F      2.9709502216     3.8156523150    -3.2805782199
          4
Energy: -6.327939432893061 Kcal/mole
 H      5.1763026694     1.8090951296    -3.9207459026
 F      4.2779245628     1.6397943997    -3.8490309081
 H      3.3253838402     2.9939440525    -3.4806044864
 F      2.9708796441     3.8160392693    -3.2821725597
          4
Energy: -6.327816105243016 Kcal/mole
 H      5.0644922846     1.8378122674    -4.2684002960
 F      4.2838558454     1.6382710219    -3.8305886459
 H      3.3446327781     2.9884403369    -3.4172421844
 F      2.9726944171     3.8151098516    -3.2787923053
          4
Energy: -6.327909335170375 Kcal/mole
 H      5.1472228217     1.8298481150    -4.0768562150
 F      4.2892389079     1.6348078455    -3.8185697523
 H      3.3385507457     2.9880288882    -3.4478696174
 F      2.9766369337     3.8160809639    -3.2921867582
          4
Energy: -6.327937333365355 Kcal/mole
 H      5.1373772035     1.8270677569    -4.1093018647
 F      4.2897611952     1.6349553370    -3.8168485855
 H      3.3387963427     2.9875507735    -3.4447211643
 F      2.9766239053     3.8161063267    -3.2923537763
          4
Energy: -6.327802094371862 Kcal/mole
 H      5.1325924307     1.8214702471    -4.1226566425
 F      4.2879556614     1.6302273487    -3.8211539365
 H      3.3382300409     2.9869532563    -3.4428029616
 F      2.9766539463     3.8161380236    -3.2924555326
          4
Energy: -6.327761707278341 Kcal/mole
 H      5.0314449163     1.8093009254    -4.3244769890
 F      4.2933213033     1.6308729031    -3.8104478335
 H      3.3622947672     2.9872402976    -3.4093985208
 F      2.9810067477     3.8125745593    -3.2896830132
          4
Energy: -6.32756875953703 Kcal/mole
 H      5.1401131114     1.8311243573    -4.0840393981
 F      4.2843401278     1.6301281532    -3.8229989291
 H      3.3356993656     2.9815673993    -3.4458860661
 F      2.9824175723     3.8128754934    -3.2877474333
          4
Energy: -6.327647787275907 Kcal/mole
 H      5.0030358678     1.8026767662    -4.3610347505
 F      4.2916117588     1.6316372322    -3.8083049658
 H      3.3631936894     2.9870039722    -3.4048098325
 F      2.9809590619     3.8125870958    -3.2899264325
          4
Energy: -6.32791392890573 Kcal/mole
 H      5.0216103236     1.8067850351    -4.3348586643
 F      4.2906264268     1.6314192980    -3.8096935467
 H      3.3639277380     2.9907002442    -3.3998186715
 F      2.9865888697     3.8172659961    -3.2761520381
          4
Energy: -6.327950198985036 Kcal/mole
 H      5.0225905368     1.8069040108    -4.3334516020
 F      4.2905744288     1.6314129866    -3.8097681881
 H      3.3630884288     2.9899210352    -3.3971352849
 F      2.9866333931     3.8173073314    -3.2762943855
          4
Energy: -6.327941169427277 Kcal/mole
 H      4.9928182466     1.8035892142    -4.3736517182
 F      4.2921537800     1.6315888289    -3.8076356648
 H      3.3665605659     2.9904851858    -3.3898991785
 F      2.9864492043     3.8172774045    -3.2766782443
          4
Energy: -6.327862486043443 Kcal/mole
 H      5.0057655299     1.8014265217    -4.3578902508
 F      4.2914669565     1.6317035547    -3.8084717742
 H      3.3660858259     2.9913157653    -3.3972993558
 F      2.9864743881     3.8172333442    -3.2762856820
          4
Energy: -6.327921404507208 Kcal/mole
 H      5.1439830423     1.8210268592    -4.0788369728
 F      4.2841348369     1.6306638021    -3.8232749058
 H      3.3422179398     2.9883284497    -3.4409682476
 F      2.9877405243     3.8173918143    -3.2739691482
          4
Energy: -6.327814420728657 Kcal/mole
 H      5.1411999227     1.8157246230    -4.0917338516
 F      4.2842824749     1.6309450735    -3.8225907562
 H      3.3422353488     2.9882371303    -3.4404771544
 F      2.9877396008     3.8173966586    -3.2739951995
          4
Energy: -6.32785990523729 Kcal/mole
 H      5.0782881526     1.8230504144    -4.2375590199
 F      4.2876197990     1.6305564572    -3.8148550680
 H      3.3505786195     2.9866236951    -3.4118568928
 F      2.9872970096     3.8174822476    -3.2755134383
          4
Energy: -6.3278931725542975 Kcal/mole
 H      5.0141193924     1.8129705266    -4.3430578758
 F      4.2910238034     1.6310911720    -3.8092585974
 H      3.3615641141     2.9875865430    -3.3911327688
 F      2.9875653812     3.8156580756    -3.2673931848
          4
Energy: -6.327949146774529 Kcal/mole
 H      5.1018165263     1.8218655364    -4.1906573993
 F      4.2863716731     1.6306193122    -3.8173430906
 H      3.3491370775     2.9864150476    -3.4172810542
 F      2.9882246068     3.8157202207    -3.2660060787
          4
Energy: -6.327924103716555 Kcal/mole
 H      5.1692714234     1.8085429196    -3.9821560040
 F      4.2827933467     1.6313260463    -3.8284036078
 H      3.3372215585     2.9880425773    -3.4503271132
 F      2.9888566975     3.8156338840    -3.2642530616
          4
Energy: -6.327658966711283 Kcal/mole
 H      5.1792028794     1.8133102457    -3.9092738484
 F      4.2817240723     1.6378123766    -3.8412937866
 H      3.3348642726     2.9911503148    -3.4676685040
 F      2.9889817461     3.8154690257    -3.2633331409
          4
Energy: -6.327836927909686 Kcal/mole
 H      5.1738528428     1.8144000277    -3.9582687244
 F      4.2820078794     1.6377545662    -3.8386947216
 H      3.3329193029     2.9906315423    -3.4565543638
 F      2.9769409138     3.8127871576    -3.2610331866
          4
Energy: -6.327963846967009 Kcal/mole
 H      5.1433289694     1.8295411510    -4.0862869639
 F      4.2836271003     1.6369513646    -3.8319036498
 H      3.3359410775     2.9871241975    -3.4349951518
 F      2.9767806156     3.8129732141    -3.2621768530
          4
Energy: -6.327732767588827 Kcal/mole
 H      5.1521620257     1.8353748955    -4.0488922706
 F      4.2831585271     1.6366418979    -3.8338873519
 H      3.3330899953     2.9844142023    -3.4411318165
 F      2.9803393528     3.8124207383    -3.2654583677
          4
Energy: -6.327857356455297 Kcal/mole
 H      5.0849144087     1.8293573487    -4.2325184514
 F      4.2867258578     1.6369611149    -3.8241464073
 H      3.3485395882     2.9861121207    -3.4154041153
 F      2.9795197876     3.8123306676    -3.2668231628
          4
Energy: -6.327767341344327 Kcal/mole
 H      5.0090035395     1.8293085276    -4.3543476758
 F      4.2907527540     1.6369637047    -3.8176836485
 H      3.3628896820     2.9866383686    -3.3853944589
 F      2.9874246554     3.8132143595    -3.2562157260
          4
Energy: -6.327775704894236 Kcal/mole
 H      5.0835523716     1.8353821676    -4.2322929082
 F      4.2867981107     1.6366415121    -3.8241583719
 H      3.3515285139     2.9847953012    -3.4045824527
 F      2.9880273391     3.8133121300    -3.2551978473
          4
Energy: -6.327799863538758 Kcal/mole
 H      5.0881085342     1.8353248527    -4.2232951145
 F      4.2865564168     1.6366445526    -3.8246356841
 H      3.3501950895     2.9847553812    -3.4075680128
 F      2.9880980742     3.8133142476    -3.2550394702
          4
Energy: -6.327842067472034 Kcal/mole
 H      5.1263600409     1.8311025815    -4.1555720226
 F      4.2915668646     1.6377696015    -3.8290269082
 H      3.3478284485     2.9863188458    -3.4210263014
 F      2.9882236190     3.8132313095    -3.2543255391
          4
Energy: -6.327834736079126 Kcal/mole
 H      5.1692712503     1.8274545790    -4.0116363829
 F      4.2892905241     1.6379631196    -3.8366623613
 H      3.3423876026     2.9881034905    -3.4403347826
 F      2.9885122433     3.8131366382    -3.2533012688
          4
Energy: -6.32777434497126 Kcal/mole
 H      5.1420536319     1.8294462543    -4.1131264271
 F      4.2907343559     1.6378574659    -3.8312785489
 H      3.3445692228     2.9859648300    -3.4261830436
 F      2.9883965134     3.8132500892    -3.2540519859
          4
Energy: -6.327925297187278 Kcal/mole
 H      5.1781634896     1.8151953469    -3.9755922111
 F      4.2888188114     1.6386134436    -3.8385744213
 H      3.3398942132     2.9889508345    -3.4485792724
 F      2.9886445119     3.8130916885    -3.2528639177
          4
Energy: -6.32792532327835 Kcal/mole
 H      5.1715308298     1.8237947325    -4.0040050752
 F      4.2891706586     1.6381572660    -3.8370671845
 H      3.3424880128     2.9892106843    -3.4449649700
 F      2.9885069168     3.8130779041    -3.2530556481
          4
Energy: -6.327944186716536 Kcal/mole
 H      5.1698353468     1.8215508626    -4.0150520220
 F      4.2892606001     1.6382762982    -3.8364811695
 H      3.3460951558     2.9884138330    -3.4390481351
 F      2.9929708761     3.8127031646    -3.2473730430
          4
Energy: -6.327706316223839 Kcal/mole
 H      5.1720626444     1.8054026263    -3.9996488265
 F      4.2854600266     1.6357404358    -3.8382811121
 H      3.3453234479     2.9892392458    -3.4439499930
 F      2.9930118135     3.8126593784    -3.2471130107
          4
Energy: -6.327906903363669 Kcal/mole
 H      5.1729032090     1.8189311261    -3.9787871111
 F      4.2854154366     1.6350227802    -3.8393877779
 H      3.3406426847     2.9874014427    -3.4445712471
 F      2.9932601171     3.8127568696    -3.2470800547
          4
Energy: -6.327937697377308 Kcal/mole
 H      5.1565074762     1.8245662157    -4.0535111042
 F      4.2862851923     1.6347238517    -3.8354238428
 H      3.3453035086     2.9862553024    -3.4310329427
 F      2.9930128712     3.8128176697    -3.2477982304
          4
Energy: -6.327944743156422 Kcal/mole
 H      5.1504779942     1.8264838098    -4.0747185096
 F      4.2866050424     1.6346221278    -3.8342988389
 H      3.3468812816     2.9863042561    -3.4281899276
 F      2.9929291740     3.8128150728    -3.2479490458
          4
Energy: -6.32796655354133 Kcal/mole
 H      5.1598369692     1.8238901701    -4.0403692575
 F      4.2861085704     1.6347597144    -3.8361209874
 H      3.3431929512     2.9861555334    -3.4345914728
 F      2.9931248314     3.8128229622    -3.2476094586
          4
Energy: -6.327957658124262 Kcal/mole
 H      5.1736363238     1.8114431290    -3.9836938277
 F      4.2853765466     1.6354200011    -3.8391274880
 H      3.3424370679     2.9878387838    -3.4432288050
 F      2.9931649292     3.8127336696    -3.2471512681
          4
Energy: -6.32792813007967 Kcal/mole
 H      5.1721514746     1.8146881079    -3.9887274651
 F      4.2854553144     1.6352478625    -3.8388604651
 H      3.3436202557     2.9886770072    -3.4446366209
 F      2.9931021639     3.8126892038    -3.2470765867
          4
Energy: -6.327984097185379 Kcal/mole
 H      5.1883895334     1.7902026498    -3.8661559149
 F      4.2845939229     1.6365467595    -3.8453626026
 H      3.3395485575     2.9917733152    -3.4637336103
 F      2.9933181580     3.8125249518    -3.2460635356
          4
Energy: -6.327954977131981 Kcal/mole
 H      5.1856918236     1.7974786054    -3.8996739550
 F      4.2847370301     1.6361607868    -3.8435845481
 H      3.3394372834     2.9900040196    -3.4571260484
 F      2.9933240609     3.8126188089    -3.2464140515
          4
Energy: -6.327988136774138 Kcal/mole
 H      5.1890592584     1.7875299655    -3.8499699931
 F      4.2845583955     1.6366885392    -3.8462212284
 H      3.3394494520     2.9923678906    -3.4661185314
 F      2.9933234154     3.8124934110    -3.2459370210
          4
Energy: -6.327973416253144 Kcal/mole
 H      5.1883817049     1.7906506725    -3.8629142701
 F      4.2845943382     1.6365229929    -3.8455345644
 H      3.3401022126     2.9917576166    -3.4627908699
 F      2.9932887879     3.8125257846    -3.2461135458
          4
Energy: -6.3279618473160895 Kcal/mole
 H      5.1879832787     1.7904284527    -3.8783652862
 F      4.2846154738     1.6365347811    -3.8447149237
 H      3.3409702087     2.9919873915    -3.4622693179
 F      2.9932427427     3.8125135956    -3.2461412129
          4
Energy: -6.327981814320765 Kcal/mole
 H      5.1897186932     1.7736982064    -3.7949251873
 F      4.2845234140     1.6374222820    -3.8491412281
 H      3.3394267990     2.9947651306    -3.4748857597
 F      2.9933246171     3.8123662429    -3.2454719398
          4
Energy: -6.3279726342917115 Kcal/mole
 H      5.1891615495     1.7869528710    -3.8478012848
 F      4.2845529692     1.6367191527    -3.8463362733
 H      3.3403388970     2.9925968076    -3.4655702483
 F      2.9932762324     3.8124812675    -3.2459661062
          4
Energy: -6.327978420517809 Kcal/mole
 H      5.1902258998     1.7793314763    -3.8294188018
 F      4.2844965079     1.6371234501    -3.8473114216
 H      3.3400731919     2.9936599130    -3.4699111777
 F      2.9932903274     3.8124248722    -3.2457358299
          4
Energy: -6.327974256276775 Kcal/mole
 H      5.1905080908     1.7700145595    -3.7991577290
 F      4.2844815383     1.6376176910    -3.8489167016
 H      3.3403390525     2.9950623765    -3.4745664994
 F      2.9932762241     3.8123504747    -3.2454888758
          4
Energy: -6.327974443449307 Kcal/mole
 H      5.1903999401     1.7701957726    -3.7976938003
 F      4.2844872754     1.6376080781    -3.8489943596
 H      3.3401975307     2.9951484692    -3.4750873804
 F      2.9932837315     3.8123459077    -3.2454612443
          4
Energy: -6.327964959011183 Kcal/mole
 H      5.1882026087     1.7570193824    -3.7500072892
 F      4.2846038388     1.6383070551    -3.8515240188
 H      3.3392617791     2.9966538465    -3.4817494809
 F      2.9933333710     3.8122660509    -3.2451078353
          4
Energy: -6.327976253108147 Kcal/mole
 H      5.1896672894     1.7634154571    -3.7736451779
 F      4.2845261409     1.6379677581    -3.8502700835
 H      3.3409949677     2.9962818430    -3.4778936405
 F      2.9932414293     3.8122857849    -3.2453123787
          4
Energy: -6.327990276657886 Kcal/mole
 H      5.1899831158     1.7700091528    -3.7903990986
 F      4.2845093870     1.6376179778    -3.8493813267
 H      3.3399816762     2.9952759602    -3.4758656727
 F      2.9932951821     3.8123391446    -3.2454199577
          4
Energy: -6.327989825304485 Kcal/mole
 H      5.1901018009     1.7708865922    -3.7943359586
 F      4.2845030910     1.6375714317    -3.8491724854
 H      3.3395788759     2.9948945968    -3.4751175167
 F      2.9933165497     3.8123593751    -3.2454596456
          4
Energy: -6.327989213765079 Kcal/mole
 H      5.1897394652     1.7708721822    -3.7886309024
 F      4.2845223121     1.6375721961    -3.8494751254
 H      3.3395025299     2.9951226381    -3.4760422434
 F      2.9933205997     3.8123472780    -3.2454105910
          4
Energy: -6.327990307184223 Kcal/mole
 H      5.1899511540     1.7678779614    -3.7853893661
 F      4.2845110825     1.6377310326    -3.8496470814
 H      3.3402425131     2.9955511718    -3.4764479461
 F      2.9932813453     3.8123245453    -3.2453890694
          4
Energy: -6.327992825703859 Kcal/mole
 H      5.1898286215     1.7680453051    -3.7840175010
 F      4.2845175826     1.6377221554    -3.8497198557
 H      3.3399396417     2.9954587892    -3.4765759115
 F      2.9932974119     3.8123294460    -3.2453822812
          4
Energy: -6.3279933007058276 Kcal/mole
 H      5.1898163673     1.7682943974    -3.7843440876
 F      4.2845182326     1.6377089416    -3.8497025310
 H      3.3397043254     2.9954534323    -3.4764311033
 F      2.9931348049     3.8123678501    -3.2452830958
          4
Energy: -6.327993300707703 Kcal/mole
 H      5.1898164507     1.7682936694    -3.7843437891
 F      4.2845182282     1.6377089802    -3.8497025469
 H      3.3397043254     2.9954534323    -3.4764311033
 F      2.9931348049     3.8123678501    -3.2452830958
          4
Energy: -6.327993300707931 Kcal/mole
 H      5.1898164746     1.7682936902    -3.7843441610
 F      4.2845182269     1.6377089791    -3.8497025271
 H      3.3397043254     2.9954534323    -3.4764311033
 F      2.9931348049     3.8123678501    -3.2452830958
          4
Energy: -6.327993300707988 Kcal/mole
 H      5.1898164746     1.7682936874    -3.7843441553
 F      4.2845182269     1.6377089793    -3.8497025274
 H      3.3397043254     2.9954534323    -3.4764311033
 F      2.9931348049     3.8123678501    -3.2452830958
          4
Energy: -6.327993300707988 Kcal/mole
 H      5.1898164746     1.7682936874    -3.7843441553
 F      4.2845182269     1.6377089793    -3.8497025274
 H      3.3397043254     2.9954534323    -3.4764311033
 F      2.9931348049     3.8123678501    -3.2452830958
          4
Energy: -6.327993300707988 Kcal/mole
 H      5.1898164746     1.7682936874    -3.7843441553
 F      4.2845182269     1.6377089793    -3.8497025274
 H      3.3397043254     2.9954534323    -3.4764311033
 F      2.9931348049     3.8123678501    -3.2452830958
          4
Energy: -6.327993300707988 Kcal/mole
 H      5.1898164746     1.7682937812    -3.7843443429
 F      4.2845182269     1.6377089743    -3.8497025175
 H      3.3397043254     2.9954534360    -3.4764311162
 F      2.9931348049     3.8123678499    -3.2452830951
          4
Energy: -6.327993300707988 Kcal/mole
 H      5.1898164746     1.7682937812    -3.7843443429
 F      4.2845182269     1.6377089743    -3.8497025175
 H      3.3397043254     2.9954534360    -3.4764311162
 F      2.9931348049     3.8123678499    -3.2452830951
          4
Energy: -6.327993300707988 Kcal/mole
 H      5.1898164746     1.7682937812    -3.7843443429
 F      4.2845182269     1.6377089743    -3.8497025175
 H      3.3397043254     2.9954534360    -3.4764311162
 F      2.9931348049     3.8123678499    -3.2452830951
          4
Energy: -6.327993300707988 Kcal/mole
 H      5.1898164746     1.7682937812    -3.7843443429
 F      4.2845182269     1.6377089743    -3.8497025175
 H      3.3397043254     2.9954534360    -3.4764311162
 F      2.9931348049     3.8123678499    -3.2452830951
          4
Energy: -6.327993300707988 Kcal/mole
 H      5.1898164746     1.7682937812    -3.7843443429
 F      4.2845182269     1.6377089743    -3.8497025175
 H      3.3397043254     2.9954534360    -3.4764311162
 F      2.9931348049     3.8123678499    -3.2452830951
          4
Energy: -6.3279933101340475 Kcal/mole
 H      5.1898122828     1.7683308696    -3.7843603958
 F      4.2845184493     1.6377070069    -3.8497016659
 H      3.3397123812     2.9954264513    -3.4764220427
 F      2.9931474088     3.8123419731    -3.2452711178
          4
Energy: -6.327993310134275 Kcal/mole
 H      5.1898123064     1.7683310312    -3.7843610460
 F      4.2845184481     1.6377069983    -3.8497016314
 H      3.3397123812     2.9954264513    -3.4764220427
 F      2.9931474088     3.8123419731    -3.2452711178
          4
Energy: -6.327993310143313 Kcal/mole
 H      5.1898120677     1.7683306261    -3.7843569298
 F      4.2845184607     1.6377070198    -3.8497018498
 H      3.3397119010     2.9954264513    -3.4764227627
 F      2.9931474342     3.8123419731    -3.2452710796
          4
Energy: -6.327993310145985 Kcal/mole
 H      5.1898120358     1.7683312311    -3.7843576972
 F      4.2845184624     1.6377069877    -3.8497018091
 H      3.3397115903     2.9954262924    -3.4764226670
 F      2.9931474507     3.8123419815    -3.2452710847
          4
Energy: -6.327993310145985 Kcal/mole
 H      5.1898120334     1.7683311651    -3.7843575312
 F      4.2845184625     1.6377069912    -3.8497018179
 H      3.3397115903     2.9954262924    -3.4764226670
 F      2.9931474507     3.8123419815    -3.2452710847
          4
Energy: -6.327993310145985 Kcal/mole
 H      5.1898120334     1.7683311277    -3.7843574563