          4
Energy: -6.141706549975055 Kcal/mole
 H      5.1108296130     2.9307900664     0.2292875015
 F      5.1090960493     2.0907227479    -0.1383711653
 H      4.4691521484     1.3693759909    -1.6055650893
 F      4.0459297730     1.1058270571    -2.3751843331
          4
Energy: -6.299422253635157 Kcal/mole
 H      5.6376510609     0.1805016973    -3.9772335589
 F      4.9023733969     0.0187272773    -3.4537024770
 H      4.1472705859    -1.5023213338    -3.7106846887
 F      3.8410339419    -2.3346150437    -3.9439126854
          4
Energy: -6.252865976728401 Kcal/mole
 H      3.6028536254    -0.5466231736    -0.8463182109
 F      2.9767114805    -1.0078689094    -1.3322064550
 H      1.2948826477    -0.6725649034    -1.4927522795
 F      0.4197151123    -0.3988065426    -1.4979623552
          4
Energy: -6.1974368003898235 Kcal/mole
 H     -2.4848992757    -2.8500471815    -4.5597554981
 F     -2.4430394239    -3.6993586019    -4.2165254530
 H     -1.0446697857    -4.3010324293    -4.9892925610
 F     -0.3033627729    -4.3366153044    -5.5278896013
          4
Energy: -6.090175750280196 Kcal/mole
 H      4.8156018070    -5.3801147564     4.3034045884
 F      4.6890455900    -5.3763140456     5.2116215661
 H      3.1172196795    -5.2849648950     5.7254908407
 F      2.2461830570    -5.0800577279     5.9259833717
          4
Energy: -6.165335543307776 Kcal/mole
 H      1.9289153012    -1.8047981223     6.2065784754
 F      2.5009160367    -2.0505488230     5.5332949158
 H      2.9548216702    -3.7088730185     5.8145296545
 F      3.0601819736    -4.4918218169     6.2801253864
          4
Energy: -6.154272117584924 Kcal/mole
 H      0.4720078611    -0.0438224860    -1.0492198302
 F      0.5740745968     0.3458268739    -0.2254208512
 H     -0.5800999178     1.5142316128     0.2924713299
 F     -1.1566946246     2.2227621487     0.3725464432
          4
Energy: -6.2365243049155765 Kcal/mole
 H     -1.0776270784    -0.1787182996    -0.2949477622
 F     -0.6003372622    -0.8352003276     0.1318013189
 H     -0.7891241814    -2.4405864725    -0.5338591676
 F     -1.1018864458    -3.1785594124    -0.9793529453
          4
Energy: -6.283375487887895 Kcal/mole
 H     -2.2542353027     1.2912564457     4.1672104119
 F     -2.8050466014     1.5561126464     3.4835825115
 H     -2.6155196920     3.0623523080     2.6723799948
 F     -2.3638292204     3.8909416412     2.3707500503
          4
Energy: -6.1414238539139205 Kcal/mole
 H      5.4020231494     5.2143312424    -0.4036934016
 F      5.4898757365     5.0092916255    -1.2931481101
 H      3.9152962918     4.9570917940    -1.7893196380
 F      2.9990337535     4.9203451350    -1.7906017568
          4
Energy: -6.259675329818606 Kcal/mole
 H      3.0395406243     0.9618669266    -5.1182427188
 F      2.6660699699     1.6039605583    -4.5805397912
 H      2.0699470206     0.7859961545    -3.1817314712
 F      1.8644153402     0.1555538549    -2.5483372534
          4
Energy: -6.196907080780079 Kcal/mole
 H      6.7966386087     1.3776078154    -2.8826143224
 F      6.3827548101     0.6336589665    -3.2233918326
 H      4.7438767614     0.7311847728    -3.6896628027
 F      3.9014848135     1.0648915060    -3.8307465448
          4
Energy: -6.159853386846521 Kcal/mole
 H      3.6270773583     6.2794564625    -7.2478454147
 F      3.4842532588     5.4494882980    -6.8850188410
 H      1.9178513895     4.6897330501    -7.0578671766
 F      1.1048766697     4.4102396922    -7.3769981339
          4
Energy: -6.156613033464794 Kcal/mole
 H      1.4609349504    -0.5932011621    -1.0331405827
 F      1.3901451687    -0.0290395484    -1.7525844515
 H      2.5959121367    -0.0259726411    -2.8472863583
 F      3.3514196677    -0.0393831807    -3.3668222357
          4
Energy: -6.2909063567256 Kcal/mole
 H     -1.0529027317    -3.3510591986    -6.0821449806
 F     -0.6084216767    -2.6227786154    -5.7460899494
 H     -1.6192007807    -1.4095835180    -5.1666808237
 F     -2.3153392360    -0.8455185648    -4.9714604876
          4
Energy: -6.2787312869700145 Kcal/mole
 H     -4.2458098847    -3.7589713628    -5.3921266360
 F     -3.9119401216    -4.5886721599    -5.1896011596
 H     -2.3371637356    -4.7907367104    -4.6081974841
 F     -1.4587375096    -4.8037989893    -4.3453558160
          4
Energy: -6.25446015130143 Kcal/mole
 H     -6.6787222670    -3.7009097357    -5.3354712977
 F     -6.0897149849    -3.3365833623    -5.9364918592
 H     -4.6801417021    -4.1300239100    -6.3044376783
 F     -3.9156838002    -4.6305611994    -6.3816098115
          4
Energy: -6.0980747443528855 Kcal/mole
 H     -0.4053720486    -4.4680441472    -2.6507100805
 F     -1.2131441206    -4.4816819076    -3.0845387233
 H     -2.7113158331    -5.3000683550    -2.6413907880
 F     -3.3524457299    -5.8873886866    -2.3500211199
          4
Energy: -6.195153757807191 Kcal/mole
 H     -1.5076147393    -4.5414362487     1.8122489724
 F     -1.7189311167    -3.9395669181     2.4710263989
 H     -3.1883632476    -3.2337598271     2.3389328031
 F     -4.0411762766    -2.9179339799     2.2212341547
          4
Energy: -6.272131356748616 Kcal/mole
 H      1.1452480664     0.3859232504    -6.9880701944
 F      0.3715559998     0.1399297962    -7.4144231077
 H     -1.0803411631     1.0221677026    -7.3443186854
 F     -1.7590568898     1.6246800292    -7.2131209011
          4
Energy: -6.060565999614425 Kcal/mole
 H     -2.0380264667     1.4838807354    -4.7918099392
 F     -1.5463154273     1.1678017060    -5.4983531444
 H     -1.7698743117    -0.4465234208    -5.2951429544
 F     -2.0493451124    -1.2316970743    -4.9126675887
          4
Energy: -6.148215131939708 Kcal/mole
 H     -2.2267552473     3.4377975444    -4.8589400227
 F     -1.9990857654     2.8713380780    -4.1747037478
 H     -2.6517029507     3.5105548392    -2.6754191598
 F     -3.1726681612     4.0494620727    -2.1471547912
          4
Energy: -6.088181034796946 Kcal/mole
 H      1.7401681986     2.1561196051    -0.5118627079
 F      0.8519182438     1.9290087375    -0.4939275020
 H      0.0106623394     3.1184530777    -1.2088673723
 F     -0.3915235786     3.8045741188    -1.6653467302
          4
Energy: -6.2794651754762185 Kcal/mole
 H      3.0930121486     5.3649527168    -2.3124273847
 F      2.4822348680     5.0652237289    -1.6976081858
 H      1.5097081356     6.1658339518    -0.8236696947
 F      1.1301085490     6.8955383793    -0.4182999839
          4
Energy: -6.267549806104967 Kcal/mole
 H     -0.2638309735     2.6489633069    -0.6152490183
 F     -1.1631993061     2.6723281293    -0.4378238581
 H     -1.8240155596     1.1189922748    -0.1573750238
 F     -2.0719263246     0.2480052535    -0.0131153225
          4
Energy: -6.135262203955222 Kcal/mole
 H     -0.0124220411     3.3669619448    -4.9067169619
 F     -0.7597543316     2.9319897432    -4.6014586592
 H     -2.2166142960     3.7127077111    -4.4213118061
 F     -2.9133977098     4.2788649861    -4.2346361136
          4
Energy: -6.214748744709368 Kcal/mole
 H     -0.9618747439    -3.8648889525     4.0915342645
 F     -1.6989417670    -4.1352833759     3.6177114501
 H     -1.9279293938    -3.8138630295     1.9545265448
 F     -1.8172415792    -3.5352353091     1.0879217900
          4
Energy: -6.192350859414148 Kcal/mole
 H      0.0363897930    -3.8745800616     5.7325105420
 F     -0.1878211812    -4.7614168316     5.6681756184
 H      0.8979368505    -5.9029855661     4.9171528579
 F      1.6460248094    -6.2622454311     4.5270429308
          4
Energy: -6.234567083321281 Kcal/mole
 H      0.3901183109    -5.8487259998     5.3838728328
 F      1.0834868738    -5.4023989940     4.9827229356
 H      1.1987880651    -5.0368950588     3.2823072012
 F      1.0634712158    -4.9326708903     2.3813545537
          4
Energy: -6.224689146430137 Kcal/mole
 H      0.1663458378    -2.5818763571     5.7068486433
 F     -0.1618033107    -2.5656389105     6.5629698273
 H     -1.6655527240    -1.7575124300     6.7018690138
 F     -2.4267610822    -1.2462582657     6.6935015250
          4
Energy: -6.292040668361551 Kcal/mole
 H      1.3073004851     1.9721706418     4.7314424738
 F      1.2870539020     1.9272880663     3.8157653308
 H      2.7738673823     2.1665239717     2.9455243539
 F      3.6333532102     2.3249063222     2.6678768388
          4
Energy: -6.1818199020435145 Kcal/mole
 H      3.0628378838     4.6749549972     6.9152723936
 F      3.0488486935     3.8630645403     6.4892123174
 H      4.0879130013     3.1550982031     5.3439140276
 F      4.7557448526     2.8842377006     4.7768829822
          4
Energy: -6.193849201484738 Kcal/mole
 H      2.5438059152     0.8735852235     5.0100856423
 F      2.2147846204     0.4319908772     5.7433171343
 H      3.4558960452    -0.3146484952     6.6836315287
 F      4.2848646325    -0.6421678430     6.8991104327
          4
Energy: -6.2771616832547465 Kcal/mole
 H      0.5891212199    -0.6473062426     3.5492378825
 F      0.8590972356    -1.3914566283     3.0863748851
 H      2.5836083596    -1.6357660305     2.9225795563
 F      3.4994499180    -1.5896934243     2.9233243955
          4
Energy: -6.254406329971118 Kcal/mole
 H      4.6781842119     1.7453101374     6.2371388999
 F      4.8639386273     1.2527893079     5.4862677194
 H      4.1787426655     1.6399195176     3.9426241522
 F      3.6901709075     2.0002898789     3.2553688577
          4
Energy: -6.191307004825774 Kcal/mole
 H      1.6116168055     0.4439536547     1.0481702241
 F      2.1782061856    -0.2298400203     0.7915234671
 H      1.9591897568    -0.7931952265    -0.8605205038
 F      1.5976714916    -0.9968146725    -1.6782812666
          4
Energy: -6.312138977121776 Kcal/mole
 H      1.6557555120     1.3108855041     5.9998580285
 F      1.4017974520     0.4526677099     5.8002170473
 H      1.5232100809     0.0767179290     4.1514744767
 F      1.6403023574     0.0079653344     3.2445833699
          4
Energy: -6.2779661675709235 Kcal/mole
 H     -3.1382078235    -0.6735422222     5.3115490328
 F     -2.6888603681    -0.0488743960     4.8127845882
 H     -3.5200928127     1.4684073026     4.6787574867
 F     -4.0998182901     2.1698461039     4.7918546964
          4
Energy: -6.312016997068838 Kcal/mole
 H     -3.5439525860     4.1455243911     5.5906565591
 F     -4.1216654292     3.9272337947     4.9128025288
 H     -4.2186037661     2.2627156465     4.7204178386
 F     -4.1389006463     1.3495491793     4.7461746983
          4
Energy: -6.2890645088468204 Kcal/mole
 H     -4.9796659004     4.9553320443     5.1186970397
 F     -5.1536915017     5.0393120334     6.0151073540
 H     -5.3847780269     3.4747732716     6.6366607110
 F     -5.4680577205     2.5652748168     6.7189167345
          4
Energy: -6.319566485380619 Kcal/mole
 H     -3.0620539322     5.6863398654     3.3284559623
 F     -3.5884601864     5.0414980273     2.9437944758
 H     -2.9926269698     3.4711848769     3.0019095226
 F     -2.5514401501     2.6747548849     3.1111910756
          4
Energy: -6.2927262618860595 Kcal/mole
 H     -1.3046522249     1.6388272289     0.1538362746
 F     -1.6201346889     2.1901230206     0.8152232756
 H     -2.6115553435     1.5013581693     2.0158023834
 F     -3.1665339616     1.0407530904     2.5821332891
          4
Energy: -6.305155716863396 Kcal/mole
 H     -2.4581801227     0.3654821896     2.9651570210
 F     -1.7668851484    -0.0447229629     3.4064415000
 H     -0.5749732500    -0.5976775816     2.3065188267
 F     -0.0979606061    -0.8322463351     1.5593070511
          4
Energy: -6.265046943968969 Kcal/mole
 H     -4.0797241806    -0.9612832186     1.3169423092
 F     -3.6632421563    -0.6613831325     2.0768710307
 H     -1.9087357060    -0.6174031125     2.0364364487
 F     -1.0257993260    -0.6848353114     1.7981818634
          4
Energy: -6.316242285777207 Kcal/mole
 H     -2.9782362233     1.1400750821     3.7737676565
 F     -2.5906329432     1.8275768492     3.3068693619
 H     -0.9873504602     1.5510981651     2.7472551651
 F     -0.1589538573     1.2242031277     2.5286511789
          4
Energy: -6.253151910090196 Kcal/mole
 H     -0.0403031984     1.8332392768     6.5733080639
 F     -0.3032319681     1.5293312922     5.7490524004
 H     -0.6381088153    -0.1314813042     5.8833285731
 F     -0.7454591352    -1.0168364475     6.0966620657
          4
Energy: -6.325600798779249 Kcal/mole
 H     -3.7351683940    -1.3645609982     4.2802663806
 F     -3.1922028494    -0.9842235415     4.9138441867
 H     -3.8259465425    -0.9132576873     6.4787367440
 F     -4.3179483013    -0.9636170103     7.2509330971
          4
Energy: -6.276832494428618 Kcal/mole
 H     -1.2235042858    -3.3827989837     7.2404471997
 F     -1.6258975334    -2.5858955882     7.4500030455
 H     -3.2615462285    -2.5991394570     7.1210949016
 F     -4.1341822952    -2.8176767881     6.9432277321
          4
Energy: -6.302782882529414 Kcal/mole
 H     -4.2856699234    -3.4281978384     7.4474888438
 F     -5.0436158251    -3.8433174721     7.1407598105
 H     -5.9197922702    -2.9257748094     6.0342573643
 F     -6.2291357141    -2.3235263170     5.4157976752
          4
Energy: -6.320727687781925 Kcal/mole
 H     -6.9036998529    -3.3555733749     6.9128096525
 F     -6.6126655860    -3.7716392114     6.1492146845
 H     -6.1373288951    -2.8065414386     4.8427065198
 F     -5.9199955518    -2.1490398690     4.2415851479
          4
Energy: -6.209192213597873 Kcal/mole
 H     -5.1691503662    -4.0293958622     7.1105225232
 F     -6.0641546586    -3.8369311330     7.1635663207
 H     -6.7885326399    -2.7164564799     6.0899138007
 F     -7.1446603440    -2.0898462745     5.5229731434
          4
Energy: -6.311465228025838 Kcal/mole
 H     -3.7056612922    -4.3896985962     5.0835859166
 F     -4.0525889484    -3.9187508525     5.7898000655
 H     -5.0727340498    -2.6356539909     5.3070031806
 F     -5.5575878261    -2.0265392160     4.8224569943
          4
Energy: -6.310221134177652 Kcal/mole
 H     -2.6197769519    -4.4154049269     5.7606329034
 F     -3.4008222150    -4.0102354178     6.0188865884
 H     -3.8185047074    -2.5426227505     5.2149772815
 F     -3.8956744296    -1.7977614186     4.6857179592
          4
Energy: -6.320951177973484 Kcal/mole
 H     -3.9584326858    -4.6883128857     6.6283278134
 F     -4.4645640853    -4.1518076165     7.1731966990
 H     -4.4477952125    -2.4914631162     6.7697152046
 F     -4.3468276558    -1.6553596172     6.4069129288
          4
Energy: -6.313147962551852 Kcal/mole
 H     -4.8855888943    -4.5418995299     6.2758147063
 F     -3.9816038072    -4.4141177572     6.3616737828
 H     -3.3865686752    -2.8451891003     6.4777910050
 F     -3.2080753358    -1.9475868082     6.5355772750
          4
Energy: -6.299363842260561 Kcal/mole
 H     -4.2082683260    -4.3442172482     5.8614912355
 F     -3.4711846746    -4.2148457525     6.3914532218
 H     -3.0608284100    -2.5916328667     6.6960632980
 F     -2.9462561752    -1.6889382387     6.8096617645
          4
Energy: -6.320654370694683 Kcal/mole
 H     -2.2960016538    -4.4609514895     6.6280890081
 F     -3.1505923322    -4.1464272183     6.7359697538
 H     -3.3296942540    -2.4591542693     6.8955185092
 F     -3.2221086568    -1.5501535785     6.9505828663
          4
Energy: -6.319847713797856 Kcal/mole
 H     -2.7402562011    -4.4853549756     6.0204090234
 F     -3.2532741579    -4.2604209566     6.7464298655
 H     -3.3039392261    -2.5887887977     6.9712884254
 F     -3.2204368564    -1.6769379713     6.9218473027
          4
Energy: -6.32591114370905 Kcal/mole
 H     -3.7218333765    -4.3981299239     5.7016218198
 F     -3.5485361743    -4.2387916392     6.5878883659
 H     -3.2933892031    -2.5958066608     6.9469913472
 F     -3.1799209491    -1.6858742311     6.9530682361
          4
Energy: -6.327749634659369 Kcal/mole
 H     -3.7077677544    -4.4246762790     5.7041842423
 F     -3.5492823231    -4.2373834164     6.5877524353
 H     -3.2932244999    -2.5957926969     6.9431235946
 F     -3.1799296862    -1.6858749718     6.9532734114
