          4
Energy: -6.327907519021892 Kcal/mole
 H     -0.5920604176     4.8346900575     4.4282278837
 F     -1.2183602493     4.1955515971     4.6285764531
 H     -2.5184085527     4.7476156824     5.5633818161
 F     -3.1333596620     5.2109600576     6.0614140673
