          4
Energy: -6.300997922995805 Kcal/mole
 H      2.1778711648     4.5938765167    -4.4864200312
 F      3.0586376109     4.8485224074    -4.5035937821
 H      3.8420839539     4.4331476759    -3.0536049681
 F      4.0312001481     4.1599885585    -2.1989072662
          4
Energy: -6.304633063466554 Kcal/mole
 H      3.9111736620     2.9570819820    -4.6321006825
 F      3.4768187914     3.4715167496    -4.0095400700
 H      4.0054588334     3.3827074974    -2.4069812044
 F      4.4482050054     3.2469381420    -1.6155069412
          4
Energy: -6.321063451813643 Kcal/mole
 H      3.8520445374     3.2863327486    -5.2404922684
 F      3.9955343060     3.6029832104    -4.3919451741
 H      5.4666437871     4.3761357305    -4.0854567468
 F      6.3015967586     4.7546815681    -4.0643478813
          4
Energy: -6.321968902226104 Kcal/mole
 H      5.8243760013     6.0118871881    -5.3235761968
 F      5.8573190149     6.2235226465    -6.2152118795
 H      6.5640642106     5.0066637162    -7.1592619107
 F      6.9880576079     4.2650437687    -7.4926062559
          4
Energy: -6.309349025940492 Kcal/mole
 H      3.3280573207     5.0232283356    -6.0013832983
 F      3.3318817303     5.6732658848    -5.3546023782
 H      4.9273674916     6.1671164207    -5.0035443854
 F      5.8325139271     6.3013698244    -4.9437534684
          4
Energy: -6.303790068780131 Kcal/mole
 H      2.1944903878     7.4951590863    -4.8323439767
 F      2.3431458965     6.6254565231    -5.0821598915
 H      1.8716207151     5.5770492822    -3.8125720996
 F      1.5662074721     5.2203424717    -3.0249351259
          4
Energy: -6.3000367893277485 Kcal/mole
 H      1.8855852199     6.7900608446    -4.6058035182
 F      2.5765087350     6.8534653963    -4.0062257008
 H      2.9547436150     5.3559813040    -3.2782098926
 F      3.0384865372     4.4704305261    -3.0553288870
          4
Energy: -6.296272660390059 Kcal/mole
 H      4.0772787067     6.2592484337    -1.3868867661
 F      3.5671253367     6.2412277596    -2.1486661268
 H      2.8476492220     4.7124851555    -2.5181200032
 F      2.6041055578     3.8287452307    -2.5421871783
          4
Energy: -6.3237627265036735 Kcal/mole
 H      0.6653361196     5.3222605379    -3.3102867727
 F      1.4822033994     5.7042008735    -3.4768353456
 H      2.7160013199     5.1958503264    -2.4104503378
 F      3.2409013695     4.8134702425    -1.7630289840
          4
Energy: -6.298105494894116 Kcal/mole
 H      1.8424194337     6.6428178740    -3.2186780369
 F      2.2838936420     5.8958483767    -3.5153699537
 H      3.7277765469     5.7356006022    -2.6814923088
 F      4.4639102000     5.8462404988    -2.1459971565
          4
Energy: -6.284038697335006 Kcal/mole
 H      2.4478079748     7.1581763033    -3.1820751810
 F      1.8285029534     6.6273770735    -2.7630256992
 H      2.5802247839     5.9283920832    -1.4299467792
 F      3.1827242480     5.6403405897    -0.8015283415
          4
Energy: -6.2844342788953895 Kcal/mole
 H      3.3339734871     5.7447051294    -2.4058236602
 F      2.7432347689     6.4291590780    -2.5589234938
 H      1.9973099291     7.1452144601    -1.2404710880
 F      1.6317546233     7.3855257031    -0.4345499846
          4
Energy: -6.294870031078176 Kcal/mole
 H      2.9410585984     5.9658304258    -2.0792523872
 F      2.5531628941     5.7024435190    -1.2911830628
 H      1.8804293002     6.8119303513    -0.2035000779
 F      1.5700488855     7.4991269661     0.3183368801
          4
Energy: -6.314801568635346 Kcal/mole
 H      3.1205830604     5.4444409360    -1.9468262830
 F      3.8099819901     6.0384237283    -1.8336778933
 H      3.6137513018     7.0125681161    -0.4538513635
 F      3.3424027330     7.3972956346     0.3330690204
          4
Energy: -6.3175096244076485 Kcal/mole
 H      5.1633968582     5.0072545375    -2.2665711986
 F      4.5565969633     5.6849031635    -2.1504883521
 H      3.9871528577     5.7885293967    -0.5763507071
 F      3.7864780761     5.6804757580     0.3118739510
          4
Energy: -6.290313152675537 Kcal/mole
 H      6.2953097139     4.5713423283    -1.0730159001
 F      6.6433400997     5.3557845145    -1.3961479276
 H      6.0370389823     6.7730465306    -0.6052114105
 F      5.6462986255     7.3954996785    -0.0567927271
          4
Energy: -6.299248512959537 Kcal/mole
 H      5.0273012125     7.1421812622    -2.3570822155
 F      5.6356557248     6.6576618183    -1.8712481946
 H      5.3916362775     6.6535695065    -0.1544743780
 F      5.0914739484     6.7486110523     0.7067797545
          4
Energy: -6.312600523932019 Kcal/mole
 H      4.3685334574     5.4346896771    -2.2410994226
 F      4.7420849876     6.2721550502    -2.2410431260
 H      4.4760896374     7.0797559444    -0.7800217263
 F      4.1971431525     7.3358020760     0.0551538463
          4
Energy: -6.326837100296018 Kcal/mole
 H      5.0770469389     5.9466089565    -0.8589672987
 F      4.5750521653     6.6820385266    -1.0781329772
 H      3.0246900832     6.3028251221    -1.6463784611
 F      2.2378215327     5.9223754967    -1.9238401104
          4
Energy: -6.298264158152222 Kcal/mole
 H      4.4294700096     6.9211494226    -3.2740120591
 F      3.6727602095     7.2893423550    -2.9097137707
 H      2.5003770712     6.1237221805    -2.4590457852
 F      1.9848032390     5.3741848718    -2.3438657243
          4
Energy: -6.320380307745097 Kcal/mole
 H      3.1511733540     7.3652885019    -3.5580337958
 F      2.8986191989     7.1970767652    -2.6926955900
 H      3.0958320187     5.5762362002    -2.1775973195
 F      3.2690543686     4.6834640041    -2.0599502903
          4
Energy: -6.317269681118034 Kcal/mole
 H      5.7456491045     6.5875134048    -2.3655109378
 F      4.9992776749     7.1075739758    -2.4810777652
 H      3.5898765446     6.2503476557    -2.1584602927
 F      2.9534889874     5.6226497986    -1.9537769341
          4
Energy: -6.288052467922 Kcal/mole
 H      5.2462965840     6.0914808776    -3.1873230859
 F      5.1133664935     5.5249008428    -3.8959877846
 H      3.5667290194     4.7788831550    -3.8457625747
 F      2.6970825631     4.5565789844    -3.6581861985
          4
Energy: -6.30709320353759 Kcal/mole
 H      4.9018585169     6.8260293512    -3.3977001950
 F      4.2186473891     7.0726526831    -3.9574219892
 H      3.0334312307     5.9142370155    -4.1331675792
 F      2.4641472674     5.1957602853    -4.1087553404
          4
Energy: -6.288907176610678 Kcal/mole
 H      3.9027060751     6.9952419908    -5.8707271850
 F      4.4284308912     6.4157859530    -5.3924666723
 H      3.7053046551     4.9733083637    -4.9265024286
 F      3.1191397971     4.2905509847    -4.7500311258
          4
Energy: -6.2566949026109455 Kcal/mole
 H      4.7849977184     7.0917202358    -4.2050209228
 F      4.0056115288     6.9728937533    -4.6733439252
 H      2.8771301683     5.6931478979    -4.5262031300
 F      2.3630041780     4.9498478338    -4.3710629323
          4
Energy: -6.32275906923627 Kcal/mole
 H      3.9115688277     7.4439402845    -3.4633989694
 F      3.0478055520     7.2353872361    -3.6899108446
 H      2.7261394193     5.5805443562    -3.7398779797
 F      2.7462782242     4.6637772447    -3.7352420548
          4
Energy: -6.316538355243324 Kcal/mole
 H      2.5852105846     6.7944581627    -3.4940618003
 F      2.2478198654     6.7648031439    -4.3462220449
 H      2.7236189879     5.4460349908    -5.2617291412
 F      3.0844106409     4.6869083526    -5.6283967432
          4
Energy: -6.29774317270585 Kcal/mole
 H      2.0099282878     6.0057122850    -3.7100852260
 F      2.7557929272     5.8256438877    -3.2079395182
 H      3.9487496105     4.7421610015    -3.8433261932
 F      4.4490100732     4.1502497063    -4.3334991098
          4
Energy: -6.318106579463745 Kcal/mole
 H      3.3517091733     5.3547290095    -1.9003020928
 F      3.4241330792     5.6913400112    -2.7502060941
 H      3.7869439774     4.5535402026    -3.9814859375
 F      3.9987989580     3.8179329186    -4.4863506629
          4
Energy: -6.31868691396005 Kcal/mole
 H      3.1341800064     6.1995068036    -4.0263814725
 F      4.0368920427     6.1443855436    -4.1779124142
 H      4.7041644439     4.6426353254    -3.8079579764
 F      4.8813228999     3.7704112829    -3.5872112867
          4
Energy: -6.3036169700787354 Kcal/mole
 H      4.8855890399     5.2202059097    -6.7380667645
 F      5.1326390399     5.2658943031    -5.8561552791
 H      5.8545399431     3.8501908444    -5.1935466714
 F      6.2028512610     3.0313549113    -4.9720157697
          4
Energy: -6.3151111989946 Kcal/mole
 H      6.7169711280     5.7161602747    -5.6053468602
 F      7.3203820707     5.0266171762    -5.5690901439
 H      6.6335782968     3.6244449163    -4.8999681791
 F      6.1079636848     2.9916916912    -4.4947008158
          4
Energy: -6.3217051598697935 Kcal/mole
 H      6.8731123171     5.0045675181    -7.1218928447
 F      7.0653106986     4.1969908520    -6.7323178064
 H      5.8154735765     3.6142762315    -5.7543683528
 F      5.0338817185     3.4743799724    -5.2956394522
          4
Energy: -6.301793590193881 Kcal/mole
 H      6.2915859859     3.0031897668    -6.0859150530
 F      6.2434991711     3.8962154344    -6.2886015477
 H      4.9351204851     4.7029587899    -5.6313270550
 F      4.1965093222     4.9806055571    -5.1641495485
          4
Energy: -6.288911095636422 Kcal/mole
 H      7.3048551265     5.8503052082    -6.2169683273
 F      7.0706987026     5.1200372466    -5.7142074762
 H      5.5239527980     5.0813554966    -5.0078003859
 F      4.6512322461     5.2284393360    -4.7677708408
          4
Energy: -6.327471146478956 Kcal/mole
 H      6.0365938603     5.6143478905    -6.4028826969
 F      6.1510028146     4.7055535964    -6.4463858257
 H      4.8371554735     3.7873800628    -5.8966420435
 F      4.0473809617     3.4615566494    -5.5634989455
          4
Energy: -6.320902688589172 Kcal/mole
 H      6.1742959329     5.3309252860    -6.4053726109
 F      5.8248237047     5.1872237721    -7.2409012081
 H      4.4807263683     4.1419016392    -7.2723955394
 F      3.7862463724     3.5789477292    -7.0682646242
          4
Energy: -6.311795029497944 Kcal/mole
 H      6.1816462938     5.0902053278    -5.8714403696
 F      6.3132236002     4.2846294223    -6.2893205832
 H      4.9474884442     3.4322805722    -6.8430781124
 F      4.1306895482     3.1182521413    -7.1171487383
          4
Energy: -6.315260400437467 Kcal/mole
 H      6.8901245327     3.3734060516    -5.7346067454
 F      6.2971641058     3.9897927010    -6.0652945599
 H      4.7796850735     3.4813071994    -6.6352296211
 F      4.0046328922     3.0641690044    -6.8924821090
          4
Energy: -6.312208465925096 Kcal/mole
 H      7.2079580860     2.8935470561    -6.5309421992
 F      6.6736304920     3.6330985492    -6.6228476463
 H      5.0085136980     3.2835546305    -6.6303392925
 F      4.1914468939     2.8673228641    -6.6238620868
          4
Energy: -6.299218232600765 Kcal/mole
 H      6.7721006642     3.6480468460    -5.5377221474
 F      6.5206214905     3.1334921158    -6.2538790121
 H      4.8549416621     3.2499380654    -6.7251953959
 F      3.9629137737     3.4479851390    -6.8023485097
          4
Energy: -6.318237932659713 Kcal/mole
 H      6.4005533127     2.9478579972    -6.6221644661
 F      6.4645312318     3.7290258185    -6.1461679735
 H      5.0578838961     4.1289831703    -5.2861092473
 F      4.2181786546     4.2062636949    -4.9258151619
          4
Energy: -6.2902448633835775 Kcal/mole
 H      5.9955398223     3.9985774450    -6.3240189305
 F      6.3819294400     3.6219868840    -5.5825530765
 H      5.3762385534     2.7446406883    -4.5377499007
 F      4.7514219066     2.2486815669    -4.0855135601
          4
Energy: -6.32772464794283 Kcal/mole
 H      7.0532610234     2.5452632225    -5.3624580929
 F      6.2965261671     3.0530972811    -5.4641730191
 H      5.2994887425     3.1403681131    -4.0909850994
 F      4.8900215301     3.0789466070    -3.2727840235
          4
Energy: -6.317614164855911 Kcal/mole
 H      5.6497268512     2.1759857772    -5.6538228751
 F      6.2994152061     2.8098894730    -5.5235917502
 H      6.4527362298     3.3520054365    -3.9399374657
 F      6.4280657468     3.5156441732    -3.0379936032
          4
Energy: -6.321294203343996 Kcal/mole
 H      6.2969973438     1.6460195354    -4.8230945766
 F      5.8039970071     2.3716224152    -5.0901903061
 H      5.6948564824     3.6700619087    -4.0188658701
 F      5.7460263278     4.2810703141    -3.3370012388
          4
Energy: -6.311215449162887 Kcal/mole
 H      6.8235634057     2.0683598271    -5.8880909822
 F      6.0436695565     2.3643182666    -5.5072193686
 H      6.1439625864     3.6341279686    -4.3853275695
 F      6.3446399257     4.2897871022    -3.7764526185
          4
Energy: -6.318389463343863 Kcal/mole
 H      5.7697473811     2.6357483200    -6.3989356281
 F      5.7593807819     2.3915962803    -5.5150966637
 H      6.3666376319     3.4830669777    -4.3683127243
 F      6.7441608465     4.1655096963    -3.8859879807
          4
Energy: -6.312859247800077 Kcal/mole
 H      5.9589360976     1.2782501412    -5.0137679615
 F      5.9158364355     2.1377572720    -5.3304364176
 H      6.5125849377     3.4111378636    -4.3880288562
 F      6.8708865728     3.9740429630    -3.7590242558
          4
Energy: -6.322424773696298 Kcal/mole
 H      6.6754453013     3.1375820467    -6.3884048962
 F      6.2058046121     2.5933458478    -5.8190775889
 H      6.3316111889     3.0813725577    -4.1995132090
 F      6.5264342898     3.4746223847    -3.3943501616
          4
Energy: -6.323901913554266 Kcal/mole
 H      7.2036423899     1.6473864587    -5.6088646623
 F      6.5401179649     2.2715760940    -5.7138010081
 H      6.0752215572     3.0366249109    -4.2671479845
 F      5.9712669609     3.3163667126    -3.4000684228
          4
Energy: -6.322394217282067 Kcal/mole
 H      7.1324235352     2.8579655785    -6.3940791986
 F      6.9695618391     2.2506939740    -5.7265567148
 H      6.1241607807     2.8196199841    -4.3598890895
 F      5.6622060756     3.2961340158    -3.7271006352
          4
Energy: -6.324260782427757 Kcal/mole
 H      7.4322381920     1.7404870531    -5.5435405860
 F      7.0788323450     2.5525690312    -5.7812718799
 H      6.0713790690     3.2656372938    -4.6292781184
 F      5.5502261087     3.4892718393    -3.9086699156
          4
Energy: -6.310131157641365 Kcal/mole
 H      7.2778609390     1.8196981550    -5.6281728941
 F      7.2439010877     2.7323661924    -5.7104698079
 H      6.0439675563     3.4114598561    -4.7264704493
 F      5.3922345161     3.5915415513    -4.1070322947
          4
Energy: -6.321095897376665 Kcal/mole
 H      6.7448489437     2.0070655072    -5.9158063656
 F      7.0897300183     2.6708426837    -5.3853858680
 H      5.9284347595     3.7832652357    -4.8240413105
 F      5.1936173426     4.2957562403    -4.6283749257
          4
Energy: -6.319161237314688 Kcal/mole
 H      6.8665036890     1.8523221798    -5.3711061284
 F      7.1853826015     2.5650508664    -4.8902495402
 H      5.9869239813     3.6946601327    -4.4907861942
 F      5.2182600706     4.1873527705    -4.4053534302
          4
Energy: -6.324267241709833 Kcal/mole
 H      7.3729747788     2.0961081621    -4.6879547532
 F      7.1984696117     2.7638965425    -5.2916894843
 H      5.9367599925     3.7753021158    -4.7870775316
 F      5.2544410310     4.2036225913    -4.3490462483
          4
Energy: -6.323334356736723 Kcal/mole
 H      7.1374955851     2.0135224748    -4.7482064443
 F      7.1563156678     2.7472023928    -5.2979778353
 H      5.9519636351     3.8989208083    -4.9662774616
 F      5.2503647378     4.3825170130    -4.6274815081
          4
Energy: -6.325961422496675 Kcal/mole
 H      6.7094519215     1.8791465049    -5.4485922643
 F      7.0285589299     2.7250693548    -5.2953791800
 H      5.8234581397     3.9183489050    -5.1362796959
 F      5.0477490616     4.4044875122    -5.0830473685
          4
Energy: -6.324675799635713 Kcal/mole
 H      6.9646445986     2.0268075294    -5.5874131157
 F      6.9268735519     2.6857408580    -4.9508055314
 H      5.6958496130     3.8494713360    -5.1382180047
 F      4.9817059197     4.3715551252    -5.3797056905
          4
Energy: -6.324357761958879 Kcal/mole
 H      7.2336416016     2.6797105069    -4.1502849487
 F      7.0576569907     2.8052617929    -5.0414388587
 H      5.7709869569     3.8800593142    -5.3079140118
 F      5.0778473390     4.4778054137    -5.2518241682
          4
Energy: -6.324632503362807 Kcal/mole
 H      6.5054130540     1.8938785047    -5.1031327369
 F      6.8676850290     2.7343856970    -5.0466024284
 H      5.7863580791     4.0489431508    -5.0577957386
 F      5.0778424486     4.6305594010    -5.0826380193
          4
Energy: -6.317329842930974 Kcal/mole
 H      6.2509339613     1.9147147346    -4.6956058550
 F      6.7722926427     2.6583414750    -4.8224656051
 H      5.8452039698     4.0520170089    -4.9448442515
 F      5.1880739228     4.6897186021    -4.9938929970
          4
Energy: -6.324337170863203 Kcal/mole
 H      6.4959019293     2.0098030955    -5.5754772356
 F      6.6531875119     2.5701917661    -4.8668766546
 H      5.7583545653     3.9960959961    -4.9313436238
 F      5.1983361926     4.6940539825    -5.1316510664
          4
Energy: -6.326876631841344 Kcal/mole
 H      6.5193793933     1.9580395383    -5.5376920997
 F      6.6566998562     2.5789911719    -4.8770475968
 H      5.7123091460     3.9842880430    -4.9924430497
 F      5.1405108840     4.6709804768    -5.1983295454
          4
Energy: -6.327772578872498 Kcal/mole
 H      6.4020560999     1.8882817936    -5.4199759020
 F      6.5933723319     2.5486015240    -4.8131275247
 H      5.7069096224     3.9818923498    -4.9935589961
 F      5.1504938838     4.6713155889    -5.2301728658
          4
Energy: -6.327622092087211 Kcal/mole
 H      6.4679163137     1.9232490947    -5.4618015482
 F      6.6018583659     2.5510941821    -4.8070045775
 H      5.7090624064     3.9829194612    -4.9750762005
 F      5.1572837555     4.6740084500    -5.2176155374
          4
Energy: -6.327455152784921 Kcal/mole
 H      6.4866998744     1.9240470692    -5.4383797536
 F      6.6419701353     2.5759769427    -4.8124663522
 H      5.7308957965     3.9964705605    -4.9825023105
 F      5.1661640184     4.6801179325    -5.2161543799
          4
Energy: -6.327920444578751 Kcal/mole
 H      6.4681483028     1.9279986221    -5.4375902985
 F      6.6429542533     2.5757673220    -4.8125082309
 H      5.7327357617     3.9988092542    -4.9801391714
 F      5.1660664125     4.6799938702    -5.2162797390
