          4
Energy: -6.327749634659369 Kcal/mole
 H     -3.7077677544    -4.4246762790     5.7041842423
 F     -3.5492823231    -4.2373834164     6.5877524353
 H     -3.2932244999    -2.5957926969     6.9431235946
 F     -3.1799296862    -1.6858749718     6.9532734114
