          4
Energy: -6.266320145702366 Kcal/mole
 H     -3.1075872178    -1.5439810564     4.0192855522
 F     -3.1618585065    -1.1923889794     3.1741070866
 H     -2.8078551278    -2.4094077338     2.0205206654
 F     -2.6387298049    -3.1664362684     1.5314466190
          4
Energy: -6.309870809918607 Kcal/mole
 H     -2.3062472862     2.2869127996     1.6856279755
 F     -3.1179592353     2.7059899227     1.6057087868
 H     -3.1858721347     4.1454514521     0.6662498001
 F     -3.0208541833     4.8691651928     0.1278294280
          4
Energy: -6.27861580307183 Kcal/mole
 H     -6.4654692618     2.1726750544     3.8131929572
 F     -6.3184294817     1.2675943339     3.8033343344
 H     -4.7820517988     0.9380651833     3.1117855621
 F     -3.9601693693     0.9340424944     2.7051135934
          4
Energy: -6.301944271708464 Kcal/mole
 H     -2.7742842395    -0.9016161897     0.5546825392
 F     -3.3485938606    -0.3759593506     1.0391847028
 H     -4.7471416589     0.1813604142     0.2443057133
 F     -5.4461150007     0.3314732344    -0.3299689672
          4
Energy: -6.260525673370751 Kcal/mole
 H      1.8803354597    -7.0419234409     0.5900530086
 F      2.1210532805    -6.2956705740     0.1146052308
 H      1.4089255612    -6.4134376968    -1.3744765116
 F      0.9225288386    -6.6549457993    -2.1133818268
          4
Energy: -6.285268150280615 Kcal/mole
 H      3.0204592304    -6.7016772116    -6.0924025669
 F      2.2888572313    -6.8624366904    -5.5634376296
 H      0.7623032243    -6.9822414966    -6.3314656667
 F      0.0784385654    -6.9747373219    -6.9423353874
          4
Energy: -6.310200309270499 Kcal/mole
 H     -0.7639353481    -5.9624382188    -3.1273024733
 F     -0.8134535736    -5.4288854521    -3.8714519143
 H     -0.1772489500    -6.0834039229    -5.2684651703
 F      0.1941394952    -6.5716340443    -5.9500742748
          4
Energy: -6.1875221122458015 Kcal/mole
 H     -0.0047673487    -5.7054990615    -4.0370265668
 F      0.5342849727    -6.4472408538    -4.0484593430
 H      1.2511958713    -6.3870176118    -5.6321869306
 F      1.5004637905    -6.1172530277    -6.4724140271
          4
Energy: -6.293842947046301 Kcal/mole
 H      2.9115288567    -6.0750252320    -3.5100579313
 F      3.6553764503    -5.5669598107    -3.6816658717
 H      3.4367641226    -4.0127353544    -4.2467591156
 F      3.2009115163    -3.1762219527    -4.5391764146
          4
Energy: -6.302083539557088 Kcal/mole
 H      2.9400835271    -5.3651022199    -6.1398807018
 F      3.1893664377    -4.5785702135    -6.5400237179
 H      2.2943674327    -3.2241096585    -5.9595680846
 F      1.6968016218    -2.6599259013    -5.5527502020
          4
Energy: -6.216102517180786 Kcal/mole
 H      0.6883100297    -5.6460498890    -4.5933326924
 F      1.3691978960    -5.3068362968    -4.0812635053
 H      2.7143600199    -6.0937122175    -3.3694273945
 F      3.4309860481    -6.5657037670    -3.0460698325
          4
Energy: -6.312643132293715 Kcal/mole
 H      1.4763814796    -6.9849000972     4.7377005036
 F      2.1782142663    -6.3947308101     4.7332337261
 H      2.3510975364    -5.6678157131     3.2286040912
 F      2.2640340406    -5.3920578539     2.3583934553
          4
Energy: -6.287455556693885 Kcal/mole
 H      4.3323744458    -1.9311177075     3.4610662226
 F      5.1781414375    -1.9439599298     3.1069443889
 H      5.7689117795    -3.4886907104     2.6487877103
 F      5.8841716076    -4.3912309294     2.5346591636
          4
Energy: -6.276143413656143 Kcal/mole
 H      4.8700946448    -0.6245542726     4.7047612261
 F      4.9632234225    -1.5099416201     4.9245458378
 H      5.2333967175    -2.7413459115     3.7655379753
 F      5.3266372132    -3.2681607963     3.0207821180
          4
Energy: -6.258481560639041 Kcal/mole
 H      7.1602079525    -2.3736798434     4.8758087358
 F      6.6593486781    -3.1201451593     5.0569675595
 H      5.1178020586    -2.5284051806     5.5332227137
 F      4.4165314772    -1.9772600213     5.7461724379
          4
Energy: -6.235706399840865 Kcal/mole
 H      2.6636000837    -3.2846782723    -0.1672186353
 F      1.7756958748    -3.4368215040     0.0041510027
 H      1.2291611982    -3.2822154601     1.5584848875
 F      0.9858387402    -3.1541688727     2.4332918678
          4
Energy: -6.302287410200677 Kcal/mole
 H     -0.4707366254    -3.9060749134     0.3463665959
 F     -0.4657275299    -4.5787371623     0.9695755560
 H     -1.9612366754    -5.3257971950     1.1121020312
 F     -2.8377949332    -5.5949881387     1.1036843927
          4
Energy: -6.292991534888245 Kcal/mole
 H     -1.3179406417    -3.4466655153     0.6631619343
 F     -1.6286881005    -4.2097560783     1.0656762938
 H     -0.5862761744    -5.5707862373     0.8650393239
 F      0.0669126323    -6.1565902050     0.5984552016
          4
Energy: -6.247300080573723 Kcal/mole
 H      7.1536226517    -4.6533576187     0.5304579410
 F      6.3200151119    -4.6632813191     0.9124121134
 H      5.6966947245    -6.0675260902     1.6749071506
 F      5.5626631243    -6.9230560286     1.9765577010
          4
Energy: -6.2976034106445695 Kcal/mole
 H      4.7181417047    -3.6468862945    -0.8560527970
 F      5.3254043761    -4.3324911682    -0.9015171240
 H      6.4844815935    -4.6066449932     0.3156153210
 F      7.0610369632    -4.6135929215     1.0286543325
          4
Energy: -6.325990652249004 Kcal/mole
 H      5.4824991007    -2.8025610640     0.5245879598
 F      5.1288331370    -2.3345556259    -0.1802384699
 H      4.0080779112    -3.2011702345    -1.1066725685
 F      3.4374943622    -3.8000823305    -1.5024347633
          4
Energy: -6.3011454051518285 Kcal/mole
 H      6.1064854890    -2.2179216218    -4.6701550993
 F      6.8737181989    -2.4172531603    -4.2091671312
 H      6.5699974401    -3.7719824592    -3.2361371610
 F      6.1904001130    -4.4871496335    -2.8056365429
          4
Energy: -6.28803509007389 Kcal/mole
 H      6.4272603431    -2.4493875519    -3.7234056935
 F      6.5508414734    -1.6090543654    -3.3777804053
 H      6.9563157803    -1.3589935716    -1.7673666646
 F      7.1880194643    -1.3866623477    -0.8805539214
          4
Energy: -6.242746211557176 Kcal/mole
 H      6.9801372621    -1.0173144199    -2.4896624717
 F      6.6366174935    -0.6510038485    -1.7223947650
 H      7.0450766997     0.9938645899    -1.3246993796
 F      7.4238666295     1.8212227361    -1.2111842397
          4
Energy: -6.266153085910219 Kcal/mole
 H      7.0447620912     0.8077764412    -1.8591632826
 F      7.1921419637     1.6674936780    -2.1421022266
 H      6.0493628114     2.7938167161    -1.5761311388
 F      5.3080769874     3.1606501838    -1.1801292018
          4
Energy: -6.320805837973921 Kcal/mole
 H      6.2466246826     2.0472795227     0.0940976049
 F      6.1506449519     2.9590905866     0.0774400260
 H      4.9801416172     3.5797740785    -0.9725613620
 F      4.2985871288     3.7404836072    -1.5646297083
          4
Energy: -6.314344799561582 Kcal/mole
 H      3.8336380990     4.2006792290     6.4407623865
 F      4.5109822840     4.8039006596     6.3057892012
 H      4.2766449916     6.3883381073     6.9201181310
 F      3.9865626027     7.1814035021     7.2775932870
          4
Energy: -6.314565011434297 Kcal/mole
 H      5.7437793100     4.3625708534     4.6612602021
 F      4.9513764518     4.5590902249     4.2436876372
 H      3.5166721364     4.4667541425     5.1906208700
 F      2.8701460645     4.3717007280     5.8339387438
          4
Energy: -6.245864475086421 Kcal/mole
 H      4.7871838754     4.3426504352     1.9702127545
 F      4.1008407414     4.1571043237     2.5493455051
 H      4.3980540957     3.0620307686     3.8629397608
 F      4.7785113118     2.4354741979     4.4139099691
          4
Energy: -6.2680974742194735 Kcal/mole
 H      2.3159078110     6.3405389644     3.9986693309
 F      1.9047353412     5.5459999013     3.7973390618
 H      2.9862383457     4.4973887786     3.1269265538
 F      3.6983882994     4.0583590263     2.7514477660
          4
Energy: -6.257388304988922 Kcal/mole
 H      5.0486659798     5.1251533261    -0.1656634596
 F      4.4209459869     5.2491548527    -0.8225350086
 H      3.8661229592     3.8464056060    -1.4922553717
 F      3.6043725361     3.0123020203    -1.7691071811
          4
Energy: -6.282603006172849 Kcal/mole
 H      1.9666219126     4.4589077222    -3.8741718996
 F      2.5230350850     3.9668703743    -4.4119382334
 H      2.9530731201     2.5612567886    -3.6245227048
 F      3.1184196046     1.8666837859    -3.0490942697
          4
Energy: -6.322456810871358 Kcal/mole
 H      3.8256654633     5.2279861362    -1.7630847084
 F      3.1188350064     4.6442731601    -1.7394443451
 H      3.5533387500     3.0161047915    -1.8298912237
 F      3.9684461167     2.1991057515    -1.8628676193
          4
Energy: -6.281327931296801 Kcal/mole
 H      3.3714212173     3.6919209990    -4.1452581059
 F      2.7631397973     4.2163421943    -3.7026915865
 H      3.1351923926     4.6436710672    -2.0492907818
 F      3.5000639773     4.7483004278    -1.2145390681
          4
Energy: -6.282155586376746 Kcal/mole
 H      4.8959193821     2.7336085367    -2.9679348646
 F      4.9521848757     3.0403185349    -2.1055821692
 H      4.8289999055     4.7399514464    -1.9511806942
 F      4.7641567263     5.6339096581    -2.1448894391
          4
Energy: -6.32193942197739 Kcal/mole
 H      5.3326570974     4.5403602870    -4.0570625154
 F      5.7017878337     3.7009853878    -4.0480470839
 H      5.6897707483     2.9436816572    -2.5191907868
 F      5.6142635637     2.7191748219    -1.6333102384
          4
Energy: -6.269872910476465 Kcal/mole
 H      3.0572609868     3.5746391761    -4.7181163511
 F      2.5454793301     3.5548119908    -3.9574748990
 H      3.3056963565     3.0251674748    -2.5030252017
 F      3.8931029496     2.6691135244    -1.8955154662
          4
Energy: -6.298535296777743 Kcal/mole
 H      2.0515452126     5.1415324311    -4.2889322607
 F      2.6624174417     5.8226063070    -4.3510812374
 H      4.2120356378     5.5725356697    -3.7274349288
 F      4.9874384969     5.2368553033    -3.3711231305
          4
Energy: -6.301236799103208 Kcal/mole
 H      1.7715191694     6.5871965227    -4.7496509908
 F      2.4331527739     6.0017959553    -4.9954886389
 H      3.9490560948     6.0434350687    -4.2194208428
 F      4.7220840383     6.1477822366    -3.7373124865
          4
Energy: -6.317138564491017 Kcal/mole
 H      1.6093294098     5.3072501370    -4.8554023771
 F      2.4955782561     5.1722138947    -4.6624847893
 H      3.2004307008     6.1744550833    -3.5086620064
 F      3.4213067162     6.7807275708    -2.8570973844
          4
Energy: -6.3026843110086475 Kcal/mole
 H      2.7438305642     7.1154886785    -6.4766405102
 F      2.6475884017     6.7016088680    -5.6640336257
 H      4.0957541534     6.6825687763    -4.7660911332
 F      4.9667456746     6.7287924356    -4.4830255165
          4
Energy: -6.299984942483604 Kcal/mole
 H      1.4524385357     6.8209163697    -5.1440168393
 F      2.0976571065     7.0272747004    -5.7620768973
 H      3.3806535498     5.9279540991    -5.6362279013
 F      3.9745808236     5.2765946504    -5.3835022360
          4
Energy: -6.284830873423459 Kcal/mole
 H      2.4564567451     4.9539557613    -7.3436875086
 F      3.0487412706     5.1398260211    -6.6687502616
 H      3.9998856828     6.5084092137    -6.8661522585
 F      4.4881228255     7.2306647411    -7.1505119702
          4
Energy: -6.240799986054412 Kcal/mole
 H      5.3589099033     4.3705439165    -6.6804751218
 F      4.7298887936     4.8085268252    -6.1770941377
 H      5.1934295806     6.4626463392    -5.9442384103
 F      5.6693514149     7.2434199225    -5.8751007270
          4
Energy: -6.2937723535739 Kcal/mole
 H      3.3792823675     5.5816968434    -4.2701881396
 F      3.3097860850     5.6800390815    -5.1792470326
 H      4.4483344991     6.8087538030    -5.8361747794
 F      5.1025254109     7.4271877591    -6.0107104286
          4
Energy: -6.324698643470015 Kcal/mole
 H      3.9459286179     5.3433318562    -4.7820501599
 F      3.3981513712     5.1385938708    -5.4883867973
 H      2.9781940487     6.4661191477    -6.4788285343
 F      2.8596031633     7.2780314432    -6.8882471786
          4
Energy: -6.304182267342583 Kcal/mole
 H      2.9064014290     5.0197202091    -4.8401148397
 F      3.5882297835     5.3184297530    -5.3756255337
 H      3.1015606128     6.6402910587    -6.3445254481
 F      2.6924569919     7.3285197858    -6.7915874646
          4
Energy: -6.310464739437236 Kcal/mole
 H      5.3498576370     6.5264031448    -6.5622462174
 F      4.8331071510     6.5693475799    -5.8059303372
 H      3.3915703971     5.7057350853    -6.0460211505
 F      2.7051979397     5.2056834271    -6.3920416541
          4
Energy: -6.319872563714398 Kcal/mole
 H      3.2565142667     7.1034905984    -4.1378872352
 F      3.7782999362     6.4615200100    -4.5334911769
 H      3.3661616724     6.0027214594    -6.1296003288
 F      3.0204532507     5.8968131697    -6.9723091286
          4
Energy: -6.32259589722662 Kcal/mole
 H      3.9889209962     6.5450026870    -3.8396150058
 F      4.4332262830     6.7985684111    -4.6006578664
 H      3.8077510405     6.2107389880    -6.0799192344
 F      3.3382348353     5.8219955058    -6.7649900615
          4
Energy: -6.304610680564792 Kcal/mole
 H      4.5306439374     7.2491296727    -6.2498966314
 F      3.8471114984     6.6835780885    -6.0178970399
 H      4.2110121199     5.0813882339    -5.5776645305
 F      4.5705177506     4.2534290736    -5.4160219296
          4
Energy: -6.312026433753772 Kcal/mole
 H      2.0919176021     6.1470285352    -5.5256430743
 F      2.5677074908     6.6295879225    -4.9078652667
 H      3.8751147942     5.7964826994    -4.2003613296
 F      4.4895841770     5.1855658197    -3.9001998004
          4
Energy: -6.327038015232631 Kcal/mole
 H      2.4945675134     7.0898412285    -4.5553356742
 F      3.3608598841     7.1320009875    -4.2575957152
 H      3.8846312749     5.8170134120    -3.3153250085
 F      3.9973026205     5.0474826218    -2.8295096827
          4
Energy: -6.313932975698776 Kcal/mole
 H      3.8396365799     6.5770879907    -5.9506603770
 F      4.0084819736     6.8135283781    -5.0809039880
 H      4.2221364611     5.5595039465    -3.9402330343
 F      4.2993822361     4.7619300980    -3.4943652888
          4
Energy: -6.31362603858156 Kcal/mole
 H      4.8245668347     7.1575950742    -5.1292569019
 F      3.9777037222     7.0568193370    -4.7922760129
 H      3.7542230765     5.5202326704    -4.1429503802
 F      3.8402573629     4.6494989856    -3.8685237932
          4
Energy: -6.3264639563021206 Kcal/mole
 H      5.0958062319     6.9884263462    -4.6528855821
 F      4.2351606707     6.7956913914    -4.9039462426
 H      3.4676752321     5.5600123160    -4.0305963330
 F      3.2201673870     4.8779721389    -3.4698378614
          4
Energy: -6.323843696242591 Kcal/mole
 H      5.1675466853     6.4954191800    -5.1171039317
 F      4.5645837575     6.8622614349    -4.5316541322
 H      3.7291816481     5.7444126894    -3.5794441693
 F      3.3939054844     5.0127306867    -3.1399895744
          4
Energy: -6.323496448127514 Kcal/mole
 H      5.5231128353     6.0139039639    -5.2246653110
 F      4.8753256691     6.4196850778    -4.7181058626
 H      3.6299900294     5.3999220144    -4.1618107705
 F      3.0629983539     4.7052343158    -3.9699294494
          4
Energy: -6.3264257140420455 Kcal/mole
 H      5.5623337700     6.0391640013    -4.7993575354
 F      4.6735458505     6.0343998517    -5.0250173170
 H      3.7239753497     5.0883337124    -3.9931497149
 F      3.3820021757     4.5410977305    -3.3416313894
          4
Energy: -6.3251450563525395 Kcal/mole
 H      5.1244366765     6.0524429010    -5.3177120816
 F      4.2546229394     6.2000083743    -5.0676371049
 H      3.6032797214     5.1280718546    -3.9255726851
 F      3.4085262658     4.4832568743    -3.3033398246
          4
Energy: -6.322879552776271 Kcal/mole
 H      5.4479146663     6.2639408464    -4.7844913814
 F      4.5317582324     6.3009637103    -4.7977464214
 H      3.7288527721     5.0784128462    -3.9173548016
 F      3.4622060635     4.3759890502    -3.3916273592
          4
Energy: -6.31870430097365 Kcal/mole
 H      5.2800614883     6.0095762296    -5.1921726125
 F      4.4244230702     6.2093325327    -4.9297429708
 H      3.6465367344     4.9834540093    -4.0399182793
 F      3.4146115734     4.2389658168    -3.5573863623
          4
Energy: -6.326317464426097 Kcal/mole
 H      4.8827931515     6.1203525941    -5.3961343620
 F      4.2401655530     6.3610826367    -4.7878845645
 H      3.5719131525     5.0689420853    -3.9284955455
 F      3.3136896631     4.2676899868    -3.5648958972
          4
Energy: -6.327800967141911 Kcal/mole
 H      5.0113738848     6.2136623253    -5.1907735206
 F      4.2311844863     6.3941590134    -4.7439911933
 H      3.5584309674     5.0756844301    -3.9213950753
 F      3.3423286908     4.2682103541    -3.5443348379
          4
Energy: -6.327882768828317 Kcal/mole
 H      5.0089264809     6.2092082070    -5.1932104091
 F      4.2313143154     6.3943952941    -4.7438619220
 H      3.5588970445     5.0755043461    -3.9215132367
 F      3.3423039665     4.2682199071    -3.5443285697
