          4
Energy: -6.327992826835214 Kcal/mole
 H      4.8930848542     1.9295666908    -2.3790861245
 F      4.2721325910     1.2670041268    -2.5068285822
 H      2.8771582783     1.7485562865    -3.3422502060
 F      2.2060153717     2.1756550169    -3.7983673767
