          4
Energy: -6.327882768828317 Kcal/mole
 H      5.0089264809     6.2092082070    -5.1932104091
 F      4.2313143154     6.3943952941    -4.7438619220
 H      3.5588970445     5.0755043461    -3.9215132367
 F      3.3423039665     4.2682199071    -3.5443285697
