          4
Energy: -6.327920444578751 Kcal/mole
 H      6.4681483028     1.9279986221    -5.4375902985
 F      6.6429542533     2.5757673220    -4.8125082309
 H      5.7327357617     3.9988092542    -4.9801391714
 F      5.1660664125     4.6799938702    -5.2162797390
