          4
Energy: -6.327979490044925 Kcal/mole
 H      5.1610646623     1.6859207178    -3.6532017636
 F      4.2685348050     1.6081941492    -3.8487472427
 H      3.3460037713     2.9987290066    -3.5430235699
 F      3.0095086117     3.8226790735    -3.3221926509
