          4
Energy: -6.327988938573128 Kcal/mole
 H      4.8753493578     1.4001288041    -3.1266566993
 F      4.3465116038     1.6831382160    -3.8202886641
 H      3.3777965598     3.0319424730    -3.4748516184
 F      2.9336541135     3.7513927835    -3.1198618464
