          4
Energy: -6.327872873900162 Kcal/mole
 H     -0.5591987203    -5.4457712636    -4.9748921061
 F     -0.4159935373    -5.1440129405    -4.1208878965
 H     -0.7758920648    -3.5039441191    -3.8678683774
 F     -1.0163431410    -2.6200737757    -3.9108276156
