          6
Energy: -1.299013101966743 Kcal/mole
 Xe    19.9032592270    36.1466088681   -21.4667776768
 Xe    -4.4028512999   -20.6795510569     7.5502163192
 Xe   -17.0081969028    40.1200786039   -24.4197875153
 Xe    -8.2478062030   -22.8399381449     7.3099583394
 Xe    16.5010639060    33.4616752436   -20.6157611964
 Xe   -17.4583893641    38.2291793044   -20.4536476008
