          6
Energy: -3.030795148405365 Kcal/mole
 Xe    23.2875859238    31.8358971755   -10.6628816140
 Xe     7.5575429978    -3.3698025494     8.3030561676
 Xe    20.7866744375    34.8515578722   -12.6948188845
 Xe    19.2799075719    32.7817839498    -9.0993895834
 Xe    19.6956108989    30.5703045108   -12.9071840013
 Xe     9.8401173643    -6.8915758752     9.6794535447
