          6
Energy: -9.463662224789453E-5 Kcal/mole
 Xe    30.1225888357    30.6072707626    -2.9411053465
 Xe   -40.2635594250    11.0888074889    12.0946185891
 Xe   -29.0584726626    34.7896323820   -31.7209049973
 Xe     5.2636351711    -2.9191573651     0.3165293994
 Xe     4.2196358201    20.9490779143   -15.4752321062
 Xe   -25.1159410861    28.2691362952   -11.0505109911
          6
Energy: -0.007845941701944146 Kcal/mole
 Xe    26.1768796070    28.5191218680   -16.6814308351
 Xe   -33.4704483867    24.4621311844    -4.5681636908
 Xe   -17.9910875993    14.3956984883   -13.2858816266
 Xe     3.3827629492    36.7432947589     8.7508598776
 Xe    -2.6483056583    34.2986279104     1.5702650353
 Xe    18.6265928489     1.8596254089    33.0849600959
          6
Energy: -3.9626351446530796E-5 Kcal/mole
 Xe    16.2406826853    26.0398470762   -28.9202796723
 Xe    17.1690463802     0.1434106242   -37.2797878215
 Xe   -34.6760070695    23.0193474026    -5.0752815211
 Xe    21.3208234742    -3.2787221802    35.2865302842
 Xe    17.5685098207    39.9691011701    39.8836857174
 Xe    15.6814803173    10.0980827260    13.3703947005
          6
Energy: -2.0049255480683072E-4 Kcal/mole
 Xe    31.2687011667    26.7384232910   -22.8511260624
 Xe    35.5346351917   -32.1242317293   -24.7013123481
 Xe    10.5067084844     3.0682518856     0.6003682193
 Xe    27.6761368754    33.5229699808    18.4535921165
 Xe    11.1554057507    23.8944602535    16.1423867587
 Xe    -9.1503625234    -8.3454252180    -1.1605982709
          6
Energy: -8.700701989998396E-4 Kcal/mole
 Xe    37.2403615360    16.4988589606    -3.0438695207
 Xe    -7.2600771321   -36.7106915155   -22.7310928101
 Xe    17.5479249278    23.8228533001    18.8669484896
 Xe    24.9256985480    -2.5759899707    32.2395074922
 Xe    15.8667117128     9.5658271650    20.2469111408
 Xe    -8.7409244303    -9.2671581931    -7.6272794904
          6
Energy: -0.427715787549414 Kcal/mole
 Xe    27.7356208101    22.0142516931   -33.6705423803
 Xe     8.3196368886   -19.7543046126    -4.1291176373
 Xe    16.4172726451    29.9296373386    -6.1821356678
 Xe     8.9346079706     5.0132017268    10.2738343509
 Xe    16.6186732721    34.2998085447    -7.2542183504
 Xe   -33.1790142878   -37.0275363769   -15.0070157548
          6
Energy: -1.351131751614337E-4 Kcal/mole
 Xe    25.6213063091   -12.3338776282    -2.5916079880
 Xe    30.4388110797   -31.4748581811    -3.8931577180
 Xe    40.0637032337     2.6610156771   -20.2514735854
 Xe    10.6920781282    16.0169269892   -12.2536854754
 Xe   -39.7411711290    35.9835706068    -1.6777799714
 Xe   -22.4172482149   -37.3611451268   -24.5466648716
          6
Energy: -0.4239699163432636 Kcal/mole
 Xe    30.0539616569     6.5030649712     7.0205459265
 Xe    32.6332749513     9.1520179665     9.2522670210
 Xe    38.8821669301    41.3084214804   -38.1071101111
 Xe    -6.0098270556    24.2492563298     9.7989637748
 Xe   -25.4372609990     9.6594733721    -9.5158815636
 Xe   -13.0216665269   -19.1915499944    -0.3493552656
          6
Energy: -0.4312510358837758 Kcal/mole
 Xe    14.2773761564    15.8094516449    13.5722729446
 Xe    16.6503927717    12.8534842805    15.7489683361
 Xe    24.4153280707    31.3797265847   -33.5977630316
 Xe   -25.0722044761    29.1564416455   -30.7897720372
 Xe   -14.0710449423    22.1735169465     8.5661988632
 Xe    23.7241788479   -11.8337539735    18.1860327168
          6
Energy: -3.03080690204555 Kcal/mole
 Xe    14.5962389704    12.8810208131    11.1824251709
 Xe    15.8023061261    11.1707956076    15.0627334244
 Xe     0.6494916683    31.6160872094   -22.0957338354
 Xe    -3.3981646595    29.9489494476   -21.5078329611
 Xe    12.1283879667     9.7463507476    13.0770917956
 Xe    16.0769764151     8.7202919704    11.3835117707
