          6
Energy: -0.852335838690271 Kcal/mole
 Xe    31.2700850360    37.3734433566   -16.1382302595
 Xe     4.1707316106     9.2539780660    20.6274733411
 Xe    28.8333335988    40.0881677999   -13.5705931041
 Xe    32.2268970414    34.2332276065    38.8818045208
 Xe    30.7224943962    37.6570524877   -20.2985442422
 Xe    25.3102750961    -0.5236918503   -17.5017295242
          6
Energy: -0.0018468189324788598 Kcal/mole
 Xe    22.3221765945    -2.5346674775    40.4888039117
 Xe    30.3119068849   -28.4436428103    27.6118020723
 Xe    26.9067695344    14.5427012757   -11.0194522892
 Xe    39.2978010467    27.7960187699    10.3190562124
 Xe    32.0669040717    38.6700891830     7.5335947367
 Xe    18.2759405909    40.1802354005     2.8277756731
          6
Energy: -6.957785925321745E-5 Kcal/mole
 Xe    16.1707025724     1.0918357098    32.1528619976
 Xe    14.4757028316   -24.5299749194     0.1865452927
 Xe    26.8488844129   -34.4240039042   -17.5983058573
 Xe    -8.6079405933    35.5315203445     5.3973394318
 Xe    17.8172229637    -1.4169597821   -11.7891562317
 Xe     1.4674598850    33.4691667361    37.3508842806
          6
Energy: -0.06035393105050099 Kcal/mole
 Xe    36.0478095081    36.0140300067     4.4703497496
 Xe    -1.9847575653   -34.4698821000    -6.7685963997
 Xe     5.5610370413   -34.6658794753    -4.1415249448
 Xe    27.4998006736    29.4894980880     4.3209928397
 Xe    25.5060655073    35.4666527311     8.8459077055
 Xe    -2.9491956018    24.1644973658    41.1662371175
          6
Energy: -0.40995479879801505 Kcal/mole
 Xe   -13.1847265840    37.7097544404   -17.9514111515
 Xe   -26.4631586647   -17.8765623836   -11.4803705881
 Xe   -24.0842257402   -20.2914217216    -8.3493189580
 Xe    23.1448567233    40.1552389861     6.2688107030
 Xe    40.8534027017    30.4442862135    -2.3814924582
 Xe   -28.3644943871    32.8633127843     7.9777222765
          6
Energy: -0.700327112319679 Kcal/mole
 Xe     7.2694537958    33.9829084151    22.4661453842
 Xe   -40.9677896057   -18.6802148898   -21.6281801703
 Xe   -36.7168522460   -20.0964677757   -21.6422934113
 Xe     4.9639332483    37.3458278285    22.3655020812
 Xe    16.5869233024    37.9234907405   -25.7115799498
 Xe   -30.8821072729    30.4487177235   -26.2466119827
          6
Energy: -0.48865841611700134 Kcal/mole
 Xe    13.6561167045    33.3176973518     8.0207823133
 Xe   -31.0004048930   -25.3379653873   -17.6758832943
 Xe   -36.0501642169   -22.9519908438   -20.0218416478
 Xe    11.8783941326    37.0339808486    10.4681092860
 Xe     0.3109736695    35.3916061328   -20.1565219683
 Xe   -23.2727119529     7.7887641666   -21.9273336421
          6
Energy: -1.5891443801533438 Kcal/mole
 Xe    14.6934976450    27.1867462585    -0.9139047093
 Xe   -36.4034905758   -23.1166946563   -22.0463899753
 Xe   -32.2596988293   -24.0292496816   -22.1503836015
 Xe    16.4212654955    30.1034105559     1.8139429098
 Xe    40.9530147944    17.6842757271   -21.0289113940
 Xe   -33.2319174480   -21.0103999939   -25.2171074690
          6
Energy: -2.9478830891452374 Kcal/mole
 Xe    23.7009576813    37.5459176875     1.3109361916
 Xe   -32.4114541482   -25.3599772433   -27.1500274062
 Xe   -31.3218195179   -27.7041666726   -23.5953033724
 Xe    25.2742623730    38.3791759992    -2.7737610970
 Xe   -34.7376512696   -28.8766363010   -25.9793023573
 Xe   -35.1621386067   -25.3168615326   -23.8042211855
          6
Energy: -3.030783297444203 Kcal/mole
 Xe    23.6278910034    37.7411152882     1.2862139532
 Xe   -32.4254742677   -25.4022253325   -27.2009576943
 Xe   -31.4974734847   -27.6068232190   -23.4749350994
 Xe    25.4272533585    38.0588940323    -2.7350023782
 Xe   -34.8125796907   -28.9316588812   -26.0729065293
 Xe   -35.1834794667   -25.1980869707   -23.7513012087
