          2
Energy: -0.01999999999695993 Kcal/mole
 He     0.6473853817     4.5411366810     2.9929363624
 He     2.0785075783     2.2430197194     2.0433086164
