          2
Energy: -4.047110829725139E-5 Kcal/mole
 He    -3.9139851885    -4.2242267725    -2.9868228836
 He     0.0447800226    -1.3543500628     4.6335360187
