          2
Energy: -0.019999999988703058 Kcal/mole
 He    -2.0026978265    -1.8660597293    -3.0764229159
 He     0.2146560326    -0.4201605623    -4.1827725896
