          2
Energy: -0.019999999987531016 Kcal/mole
 He    -3.4759958384     2.2899492467    -2.3250150397
 He    -1.1274579822     3.9355553024    -2.2382632421
