          2
Energy: -4.6005242854733737E-5 Kcal/mole
 He     7.2760918333     7.4086390716    -2.0361670647
 He     4.7668315148     0.2141192590     2.4904253665
          2
Energy: -2.572114930066295E-4 Kcal/mole
 He     0.0298923117    -0.8645091769     3.1445584689
 He     6.0087217570     0.8151041892     0.7677356550
          2
Energy: -6.138037896661197E-4 Kcal/mole
 He     4.8647580345    -4.5616409485     6.1447765738
 He     1.2901119736    -4.8415343418     1.6523498709
          2
Energy: -1.0279557889587703E-5 Kcal/mole
 He     4.6103300561    -0.7182613470    -4.2238376083
 He     1.7560084276     4.6700816077     5.3824311365
          2
Energy: -0.0028771519542563503 Kcal/mole
 He    -6.7036631400    -2.3324464967     3.3610288273
 He    -2.4771024348    -1.7644020815     2.1964489468
          2
Energy: -3.708089912694733E-6 Kcal/mole
 He     2.1784077543     1.6594024156     5.4072983667
 He    -5.2294387903     6.1651819836    -4.9218820874
          2
Energy: -1.77806775933307E-4 Kcal/mole
 He     0.7539213048     0.7488395147    -2.6913255198
 He     6.8082981913    -1.0402125728    -5.8800446732
          2
Energy: -5.713048556873321E-4 Kcal/mole
 He     3.6136095261    -2.1797601824     1.5617261620
 He     7.1589239416    -1.7411444533     6.1532990556
          2
Energy: -4.5347043965641543E-5 Kcal/mole
 He    -0.3499702618     5.9712565899     4.4625316314
 He     2.5913255716    -1.3149334844     0.3169099665
          2
Energy: -0.01999999999695993 Kcal/mole
 He     0.6473853817     4.5411366810     2.9929363624
 He     2.0785075783     2.2430197194     2.0433086164
