          2
Energy: -0.019999999872392284 Kcal/mole
 He     2.5193145860    -5.3239785673    -1.8477197342
 He     2.7214342929    -4.9022840739     0.9829645836
