          5
Energy: -0.627993487211454 Kcal/mole
 Ne    -1.1210145970    -4.1154833263     2.7709760200
 Ne    -3.3309265755    -2.1590845150     3.7804071074
 Ne    -2.2768980988    -1.9278531328     0.8487659573
 Ne    -4.0402033619    -4.3677949813     1.6995452342
 Ne    -0.4430675756    -1.1013604552     3.2132157101
