          5
Energy: -0.03858697921112695 Kcal/mole
 Ne    -1.6139115516    -2.5568628007     3.8682608538
 Ne     6.5067678827    -1.2604946693    -5.2484148410
 Ne    -6.1071273689    -3.6127368755     6.9724313099
 Ne    -0.4360848308     0.5525987826     1.6807479889
 Ne     4.3623484462    -2.9375448741     2.1298926713
          5
Energy: -0.015615402958208565 Kcal/mole
 Ne     2.1009914807     1.9130408960     6.6552768075
 Ne     7.0842775138     5.9413864721    -6.6335255378
 Ne     7.3472320219    -4.3297241004    -4.9834304562
 Ne    -3.6826373962    -0.0708059795     5.8354689315
 Ne     5.3636118067     1.7303157074    -5.4434814718
          5
Energy: -0.030764890062899144 Kcal/mole
 Ne    -0.2191385277    -6.6102685176     3.3445076126
 Ne    -6.2968226679     5.9841017136     5.8917181258
 Ne     3.5318668058    -3.7383648837     7.2054813926
 Ne    -6.1327229052    -1.1513093194     4.3156439871
 Ne     0.4742760574    -2.1642702204     4.0637970382
          5
Energy: -0.015489450321020084 Kcal/mole
 Ne    -5.6929939683    -0.7936028600    -7.0942057957
 Ne     7.1911177682    -0.1786773685    -1.7014838603
 Ne    -6.1779530338     5.1095061800     6.0848378880
 Ne    -0.2934339254    -0.2678953705     4.5286680346
 Ne     2.2114893414     2.6885387594     6.8225739083
          5
Energy: -0.08918459043504923 Kcal/mole
 Ne     2.8729764012    -3.6608241090    -3.9196005678
 Ne    -4.1026386030     3.7167169873    -2.5000867365
 Ne     0.0995451278    -2.6732267367    -3.5845312504
 Ne    -6.0126399946     6.8622198287    -0.9730891163
 Ne    -2.3166206879    -1.7945374850     5.7983495987
          5
Energy: -0.02256042650703491 Kcal/mole
 Ne    -1.4801889063     4.6321790827    -2.1899778281
 Ne     2.9746671859    -5.1590562834    -0.7168696218
 Ne    -1.3823923257    -5.7158564206     0.5137277592
 Ne     3.3638882621    -2.4517189098     4.1244742212
 Ne    -0.7352670400     4.9032997253     3.6888102033
          5
Energy: -0.05000390457860816 Kcal/mole
 Ne     6.9314176309     5.2852295299     1.1200494607
 Ne    -4.3197584794    -6.8671572134     6.5315030554
 Ne    -2.3354463352    -0.1074637358     1.8489466446
 Ne     3.8005204655     3.2649709688     0.7857698058
 Ne     7.0600443081     4.7026719477    -3.9562187151
          5
Energy: -0.4717689409295082 Kcal/mole
 Ne    -2.9240673593    -0.6262312049    -0.8551597771
 Ne    -0.4667060896     0.7570248000    -2.9649979373
 Ne    -1.8954370942    -0.3203653113     2.0603413618
 Ne    -0.3543755907    -2.2190988595    -1.9372357691
 Ne     0.9305111961     0.3126935550    -0.1568254374
          5
Energy: -0.5581812706420034 Kcal/mole
 Ne    -1.0196864351    -4.1503976640     2.6186941435
 Ne    -3.2098045272    -2.8144285099     4.5992834925
 Ne    -2.0045400048    -2.4082163820     0.1276457772
 Ne    -3.9898296052    -4.3029124639     1.8056294411
 Ne    -1.3962276778    -1.0797344196     3.0407708078
          5
Energy: -0.627993487211454 Kcal/mole
 Ne    -1.1210145970    -4.1154833263     2.7709760200
 Ne    -3.3309265755    -2.1590845150     3.7804071074
 Ne    -2.2768980988    -1.9278531328     0.8487659573
 Ne    -4.0402033619    -4.3677949813     1.6995452342
 Ne    -0.4430675756    -1.1013604552     3.2132157101
