          5
Energy: -0.009172744251368032 Kcal/mole
 Ne    -0.9410614853    -0.4801392436     6.8664322998
 Ne    -5.0666173371    -3.3009722508     5.2909455626
 Ne     3.9243407151    -1.4155493412    -2.8170918499
 Ne     0.0603539598     6.0812256290    -6.9905255567
 Ne    -1.9839856836    -3.3767290744    -2.0048873291
          5
Energy: -0.08369884734393722 Kcal/mole
 Ne    -7.1154398222     6.1740282896     3.2100784923
 Ne    -6.1782427119     6.8895900892     0.5198089685
 Ne    -5.5449551087    -1.2176016687    -2.7290282175
 Ne    -6.9357571387     2.3811044852    -4.0846913245
 Ne     0.7372897524    -4.7509268563    -5.0151859035
          5
Energy: -0.021991016690862765 Kcal/mole
 Ne    -2.2127301709    -6.3000346325    -7.3746986527
 Ne     0.4709031063    -5.0770585309    -3.9963020567
 Ne    -7.2750656487    -6.9019455766    -4.6149866072
 Ne     3.6962737636    -5.8731773554     0.8266665691
 Ne    -5.3484439871     3.5026283912     1.5434478890
          5
Energy: -0.08772402602589686 Kcal/mole
 Ne    -1.2961994778    -5.0542616733    -2.5585667510
 Ne     3.0952725767     6.2065468360     3.6410229126
 Ne     7.3638254963     7.0880870627     3.2466134788
 Ne     0.0214451964     5.6441722346     3.3878692881
 Ne     5.2602738365    -0.2135782253    -2.1136921841
          5
Energy: -0.0029020650638020085 Kcal/mole
 Ne     7.3812779740     4.2632209822    -7.0097140607
 Ne    -4.2610780874    -0.3741371283     4.4455489554
 Ne    -1.2831871322     1.6773978772    -4.4832329948
 Ne    -7.1443710357    -0.7614142725    -3.4874969192
 Ne     3.8045056809    -2.8623920144     5.6355813890
          5
Energy: -0.03451916341853205 Kcal/mole
 Ne    -5.3964905163    -5.8178582236     3.9355866837
 Ne     6.8031620638    -6.6927227892    -6.7936762922
 Ne     1.1637324214     1.2062079591     0.3688873488
 Ne     3.9490816956     3.3272367362     5.0305114101
 Ne     2.2966234869     1.7344257178    -2.1844853949
          5
Energy: -0.0026149260514535997 Kcal/mole
 Ne    -7.4501088199     3.4702469900     6.1524352112
 Ne     0.3566159873    -5.7461027548     0.2518626513
 Ne    -0.9965404944     4.2912600886     3.2208646833
 Ne     0.4520489093    -3.7785090928    -6.7466677503
 Ne     4.5684777816     3.1626470425    -3.8144338443
          5
Energy: -0.07329937509406123 Kcal/mole
 Ne    -6.1211765475     5.5088312300    -2.6251906084
 Ne     3.7072209438     3.3457235629    -4.4856927373
 Ne     0.8504941430     4.8890858819     2.3622849775
 Ne    -1.0659960010    -2.7405222344    -0.7996518590
 Ne     3.4510234966     5.3703811450     0.4769233801
          5
Energy: -0.2461438532462194 Kcal/mole
 Ne    -2.6951984253     2.8823560963    -4.4152202235
 Ne    -2.6646433471     6.1164158382     0.2533320809
 Ne    -0.4867049989     5.3616773233    -1.8263862815
 Ne    -6.1271359446     1.1932176615    -5.3063128476
 Ne     0.2854721133     6.7975544770     1.2600434215
          5
Energy: -0.6279234787674195 Kcal/mole
 Ne    -3.6242210118     5.1477587853    -2.2107717590
 Ne    -2.2645368370     4.7342998812     0.5616720392
 Ne    -0.5282420362     4.7685338428    -2.0181988366
 Ne    -2.4185504383     2.3700894580    -1.4413616154
 Ne    -1.8558546862     7.4111312718    -1.0000268979
