          5
Energy: -0.004592339113007105 Kcal/mole
 Ne    -0.3083445563    -7.0656451259    -0.7472509447
 Ne     3.4836858106     6.9323751900     7.3950431721
 Ne     4.9015574016    -7.1959508365    -3.1085874873
 Ne     4.3022894547     0.7063718763     3.1016154952
 Ne    -0.6477508225     6.2113160659    -6.5381570544
          5
Energy: -0.005135000115539135 Kcal/mole
 Ne    -2.4266729741     1.2921486536    -6.2886689061
 Ne     4.6226827773     4.4497723487     5.5936597164
 Ne    -6.6372819397    -2.0674964101    -7.1575042816
 Ne     7.1943582205    -6.8509455045     1.7261313123
 Ne    -5.6082725133     0.6496657994     2.9230007838
          5
Energy: -0.019893341283735346 Kcal/mole
 Ne     6.7118759976    -3.7910138866    -6.6875804441
 Ne    -1.6545641611     0.0722815122     2.0278798945
 Ne     0.6485617306     4.2169748021     4.7953825409
 Ne    -0.5341747261    -5.9119803111     6.6966860251
 Ne    -4.4337732758    -2.0113117879    -0.8598518864
          5
Energy: -0.04340062410644264 Kcal/mole
 Ne    -3.4849961872    -6.0119477561    -2.6608269132
 Ne     2.0250983312     3.2213958953     5.1288825025
 Ne     4.0592234194     6.8684837516    -3.5334632793
 Ne    -6.3731416147     2.6055295825    -7.2639540100
 Ne    -0.3426270967     5.0031722609     2.9705251483
          5
Energy: -0.008895433505446845 Kcal/mole
 Ne     5.0999402752     6.0009441785     0.8652702473
 Ne     5.0325671719    -5.7478512389     4.5768109877
 Ne    -5.1935243412    -7.4116796898     6.1812270549
 Ne    -1.4885857939     0.3103984700    -3.4155473579
 Ne     1.8886156375     4.7645046202     4.4379332663
          5
Energy: -0.08548323776477526 Kcal/mole
 Ne    -6.2060935878    -2.0959232928     0.3037366729
 Ne     1.4901473580    -3.1113561749     7.4243382900
 Ne    -6.0825152772    -4.6017254013     3.0092951344
 Ne     3.0345341958     2.6407938199    -7.2770473107
 Ne    -0.0780924461    -0.8127708511     6.6759373700
          5
Energy: -0.05201793692061513 Kcal/mole
 Ne    -7.2015509841     2.2740845421     5.8800988562
 Ne    -6.0888499739    -0.9080618843     4.7528642909
 Ne    -3.3751375705    -4.2538130838    -1.9917698821
 Ne     7.4264928372     6.9285588240    -1.2206393344
 Ne     1.8773204716     4.5881692748    -1.9385177200
          5
Energy: -0.019676524532208167 Kcal/mole
 Ne    -0.4411405941     7.2279572672     1.4066559750
 Ne     3.6281735120    -2.5112479222    -4.3178331518
 Ne    -2.2800166688     1.2628394886     6.2716726827
 Ne    -0.3785829753    -0.4451626695    -6.5566687402
 Ne     1.6690134616    -6.7153950005    -3.2595917722
          5
Energy: -0.11499060078748256 Kcal/mole
 Ne    -0.5932874368    -0.8802191978     2.0997783819
 Ne     4.5155711761    -1.3243911702    -1.1894774662
 Ne    -3.0214231801    -3.0824651390    -1.2277716073
 Ne    -3.9285383430    -0.5296626047     1.2483164181
 Ne     1.1093253202     0.9483268946    -5.9612145750
          5
Energy: -0.6278307248834747 Kcal/mole
 Ne     0.3333960253    -0.3010221325     1.2095533965
 Ne     2.1540159967    -1.2997174645    -1.1046397569
 Ne    -0.9352259524    -1.7115224236    -1.2956672830
 Ne    -2.3336954557     0.7294269228     0.0121978871
 Ne     0.3143484917     1.1638534546    -1.5638846054
