          5
Energy: -0.6278307248834747 Kcal/mole
 Ne     0.3333960253    -0.3010221325     1.2095533965
 Ne     2.1540159967    -1.2997174645    -1.1046397569
 Ne    -0.9352259524    -1.7115224236    -1.2956672830
 Ne    -2.3336954557     0.7294269228     0.0121978871
 Ne     0.3143484917     1.1638534546    -1.5638846054
