          5
Energy: -0.6279703229532704 Kcal/mole
 Ne     0.2790645391    -1.7950819989     1.0256260588
 Ne    -1.8026814888    -3.4724720739    -0.5706893752
 Ne    -1.3882705830    -0.4707977655    -1.2372157329
 Ne     0.9200289795    -4.7283011924     0.2344636259
 Ne     0.8273091605    -2.5224027158    -1.9757690469
