          6
Energy: -0.012150908267607057 Kcal/mole
 He    -6.2896945038     4.2282044160     1.1877221814
 He     5.0029470160    -5.9142408363     3.1303405135
 He     4.0144791653    -6.1224254714    -0.7814704836
 He    -0.5054800208     6.9297713520    -1.0721020375
 He    -3.3473907055     1.3767645081    -5.6892255187
 He    -2.9282557323     5.1156517827    -6.4145470422
          6
Energy: -0.022753958738404287 Kcal/mole
 He     4.7605684377    -5.2135927175     4.8643464664
 He    -6.3439498076    -6.2985211377    -5.5918090675
 He    -6.0037435539    -6.8422098732     5.5587206779
 He     1.9690217899    -7.1994039392     6.8760433073
 He     1.2058448576     0.1919373293    -1.0692516141
 He     7.3304375640    -5.8912243916     4.3187158384
          6
Energy: -0.013083868569472589 Kcal/mole
 He    -7.2727912240     5.1473329714     1.4338232414
 He    -5.5207825501     0.9782382752    -3.9075167977
 He     5.0003456800     0.3236419395    -5.8282420983
 He    -6.1896460036     5.9701156728    -1.6867820137
 He     3.9524967563     1.4985694656     0.7870043818
 He    -1.7058061093    -7.2502652254     0.3173687779
          6
Energy: -0.005717661397101517 Kcal/mole
 He     6.3938272370     1.4525710075     2.3233068301
 He    -2.5740200437     6.5071994197    -1.3871960162
 He    -1.5601723606     5.9493428295     5.0045725459
 He     4.4336129499    -3.7130689136    -6.3008609766
 He     1.4442888625    -7.0802619663    -7.3320653277
 He    -2.9758307597     1.8149093185     5.3541204845
          6
Energy: -0.0011616874833820662 Kcal/mole
 He    -6.7492197749    -1.4993893964     6.4816127192
 He    -1.7127539205     6.1790050768    -0.9685601263
 He     7.0057854138     4.7327812158    -5.4466362130
 He     5.9267341809    -4.6236000188     4.5878707596
 He     1.6065709360     4.1513499712    -7.2871374539
 He    -0.0426493169    -0.4153217907     6.7854002809
          6
Energy: -0.032373320447147566 Kcal/mole
 He     3.3956983428     1.1584177950    -2.5585457498
 He    -7.0984778831    -6.3573646714     1.1903270750
 He    -3.2128545046    -5.7604571499    -0.4523574308
 He    -6.9928819143    -1.9725769715     4.9179915967
 He    -5.5705009367    -3.5961590971    -0.0171992437
 He     3.1548478279    -2.6469772202     5.3364087416
          6
Energy: -0.01789334718754629 Kcal/mole
 He     1.1341516044    -0.7923281256     4.7973696827
 He    -3.5649833852     2.2656566798    -4.6223452975
 He     4.8366797309    -6.2360418374     6.4690851608
 He     4.1105613751     2.5233086926     0.5896700025
 He     7.1252265206    -2.2962316190    -0.2508919224
 He     4.4121586582    -2.8856405969     6.3211963316
          6
Energy: -0.21649648820707934 Kcal/mole
 He     3.0349782584    -1.5078615058    -4.2135324311
 He     6.9729385491    -0.6923401421    -5.5759578559
 He     5.3454066152    -2.4197292968    -3.6237646675
 He     4.7597052481    -2.5048198213    -6.4871738569
 He     4.4115874552     0.2740873736    -6.1591448097
 He     5.4730999292     0.4696890600    -3.2785879455
          6
Energy: -0.2423392134715786 Kcal/mole
 He     5.6377029475    -2.6363239680    -3.2255197574
 He     4.7722305410    -2.9462242778    -7.0094088484
 He     7.0146703184    -3.8145043950    -5.4473883365
 He     4.1575175308    -4.5883959965    -4.6993983961
 He     3.5920232878    -1.5558171775    -4.8405328260
 He     6.3903437310    -0.8433260134    -5.3060712340
          6
Energy: -0.2540954090024618 Kcal/mole
 He     5.7392317093    -2.6193036222    -3.1696298915
 He     4.7414126108    -2.8796699965    -7.0916536774
 He     6.9740353352    -3.7285720217    -5.5174404496
 He     4.3134944126    -4.4907025237    -4.7972704213
 He     3.5033862716    -1.7508245610    -4.7554826360
 He     6.1558805013    -0.9997938326    -5.4793859567
