          6
Energy: -0.24593357770654609 Kcal/mole
 He    -0.4418525507    -2.2063030168    -5.5154734158
 He    -1.9404593165    -2.4508625541    -1.0720163827
 He    -2.2009027014    -1.0932642159    -3.5598236940
 He    -1.4884481095    -3.9219335834    -3.4782309390
 He    -3.2036771871    -2.9129325546    -5.5411125484
 He    -4.1328440354    -3.0706683306    -2.8378728643
