          6
Energy: -0.24596197059661246 Kcal/mole
 He     5.0527174877    -0.5403328697    -1.4403727995
 He     3.9434246245     2.4254568212     2.0465755768
 He     2.9339436858     0.7699733561    -0.0415831381
 He     3.5468835393    -1.9617596473     0.5567004641
 He     2.9000200034    -0.1822707841     2.6749493231
 He     5.4044391335     0.0840013397     1.3109298603
