          6
Energy: -0.014324839642839562 Kcal/mole
 He    -5.9734580706    -5.2648708404     1.4361240710
 He    -7.2144259141     7.4777624700    -2.3196557165
 He     6.4366266272    -4.8187094704    -0.4377827132
 He     6.3759189883     3.4521806128    -6.6892723015
 He    -1.8767804908     1.9686851339    -4.6850782066
 He    -4.2120485036     0.3197174579    -6.2783712488
          6
Energy: -0.002070355965953781 Kcal/mole
 He     6.5197601122     3.1257791717     0.7435307002
 He     4.9085030759    -1.8123804517     1.0040694762
 He    -6.5368151832    -4.8529457845    -4.8010113755
 He    -3.0003214010     2.6621649282     7.1792856898
 He    -6.4929281502     5.4327071826    -0.5972120217
 He    -1.3930197482    -4.7298860232    -2.6956351443
          6
Energy: -0.028150609005518742 Kcal/mole
 He    -1.4884223748    -2.5523222051    -2.8141249595
 He    -4.0538046719     7.0856206388    -6.9649424319
 He     4.1487056287    -1.6517084257    -1.2387186076
 He     1.6687518271    -1.8716301845    -3.6820371750
 He    -0.5929852952     5.3402838664    -5.4674931828
 He     0.6534436420    -0.5764778762     7.0191968060
          6
Energy: -0.008779931194392758 Kcal/mole
 He     2.0320238531    -2.5355912447     4.4535351232
 He     4.9786770194    -1.1953087174    -1.1542245108
 He     1.0005449626     3.3140106658     6.0559552580
 He    -5.1013568049     2.6641490433    -3.8276824652
 He     6.2964733826    -4.6370562129    -0.8617831301
 He    -7.3294393596    -6.2661438121    -4.9502639432
          6
Energy: -0.00847817304546364 Kcal/mole
 He    -6.8892396509    -6.4793389160     2.0122621491
 He     5.6406761049    -4.4537357869     6.5488799002
 He     1.7006344961     0.3000161545    -3.5305379191
 He    -0.9213819784    -2.0090212215     3.1733098043
 He     2.0600822803    -0.1085342281     4.4080216831
 He    -0.3370185029    -6.3976276047    -4.3590345997
          6
Energy: -0.043794383135643156 Kcal/mole
 He    -0.5698949456     2.1828456047     3.7714678553
 He    -1.4851371520    -2.3680269746    -2.0042948943
 He     3.2051869557     0.0362656788     4.6620248508
 He    -6.6958356041     2.9923690255    -0.5276252670
 He    -0.3007783204    -0.9382788855    -4.2666932002
 He    -3.3992786062    -0.3789713198    -0.4967534887
          6
Energy: -0.020996439491615868 Kcal/mole
 He    -5.6545904085     1.0392225598     6.4994915100
 He    -0.5289639349     7.4923251222     1.7622111234
 He     1.5069314594    -1.2924875706     4.6018593061
 He    -5.1700650782    -7.0216365647     4.7446232760
 He     6.0351490980     0.8511532627     6.8132018406
 He    -5.2262829987    -6.5225636457     1.9687927330
          6
Energy: -0.10514638410273823 Kcal/mole
 He    -2.6942287817     2.2582395939    -2.7983417247
 He     0.9207461383     6.6403598344     4.9185672063
 He    -3.5756939816     2.4607011437     4.7348599040
 He     3.1827088702     4.9986173227     3.7587517308
 He     1.7979122519     4.7274657773     6.5906150185
 He     0.0837641301     4.1920404471     3.9804506922
          6
Energy: -0.20509447006910797 Kcal/mole
 He     0.6987374097     3.9467553456     2.3857312462
 He     4.6128216866     2.6261049265     4.9465720759
 He     3.3853576148     4.2877961585     3.2578265429
 He     4.4596689362     1.6007056306     2.3434922819
 He     1.6861041246     1.4386594296     2.6100910651
 He     1.6491032204     2.9392004808     4.8305495068
          6
Energy: -0.24582656303508243 Kcal/mole
 He     0.3373053198     3.8509687537     2.4159357385
 He     3.8530496872     1.8436209625     4.7285097423
 He     3.1207949593     4.0131169723     3.0234249274
 He     4.5231253324     1.7982231795     1.9468468295
 He     1.8089527865     1.4411650199     2.7098886572
 He     1.2707748977     3.0704977233     5.0057549309
