          3
Energy: -0.059999877452587676 Kcal/mole
 He    -1.2357256843    -2.0804005850     3.9935036879
 He    -2.3001196110    -3.7522596443     1.9184285535
 He     0.4284028986    -2.8754476351     1.7945012657
