          3
Energy: -0.0023013048032589486 Kcal/mole
 He    -0.7700331114    -0.3072860656     0.4792444097
 He     3.2812701346    -3.4151625549     0.8064995621
 He    -3.7406092891    -2.1263414676     4.4737080433
