          3
Energy: -0.059999865094661355 Kcal/mole
 He    -1.3795845082     0.3832008833    -2.8156346074
 He    -3.8456286136     0.3956723254    -4.2800176019
 He    -1.6190776419    -1.1411631608    -5.2335334441
