          3
Energy: -0.0028019384376667344 Kcal/mole
 He    -1.0017209209    -1.9995382058     0.3573994794
 He    -5.4692069276    -2.2220631914     2.0164415442
 He    -2.1826004851     2.9148370079     3.2385755378
          3
Energy: -0.006487025309403296 Kcal/mole
 He     0.0075183384     0.9773588685    -1.0398199001
 He    -0.3854489326    -2.5817888461     0.3344643671
 He    -6.4085069381    -6.1891421172     4.3098360924
          3
Energy: -0.0025628898314687468 Kcal/mole
 He    -5.0220058070    -2.1154720160    -4.8240463810
 He     0.2040469281    -2.5990647494     3.5952115159
 He    -0.7289132992    -0.8653627043    -3.9972092405
          3
Energy: -5.889966910335546E-5 Kcal/mole
 He     1.9582588399     7.3527500810    -1.4580526244
 He     4.4917150620    -6.2153600150    -1.3549473613
 He    -6.0389198276     5.5381844512     1.1985900259
          3
Energy: -2.576334133215237E-4 Kcal/mole
 He     4.5528313092    -6.2593902457     5.2661917283
 He     4.8822304443     0.2059556423     6.8943585084
 He    -3.7265952564     0.1137936356    -3.9053299892
          3
Energy: -4.2392161535982165E-5 Kcal/mole
 He    -7.1382583537     1.6239010568    -4.9510869131
 He     2.1232747901     0.3200644906    -2.1882031677
 He     3.4467438685    -4.9461624586     6.9296067575
          3
Energy: -4.7639544819587E-5 Kcal/mole
 He     6.5364431222     2.9516958228     0.9061881527
 He     6.1396968611    -6.4208961779    -2.0707825529
 He     0.1928761236     4.9974936665    -6.8196130930
          3
Energy: -3.295235933244118E-4 Kcal/mole
 He    -7.2388698269     3.8449061865     0.4518824745
 He    -1.2276619398    -6.6769811602    -4.2743025882
 He    -5.3540084885    -1.4787222844     3.5859788218
          3
Energy: -8.116941981373815E-4 Kcal/mole
 He     6.6833052619     2.4519370036     1.4688268039
 He     4.5798426383     6.9940954981    -0.9274270953
 He     5.3639215171    -5.5739859158     4.5112063680
          3
Energy: -0.0599997129131432 Kcal/mole
 He     5.8967315225     2.8993101371     1.8217967017
 He     3.2470213426     3.9900761303     1.6734240441
 He     3.8211879413     1.8626785695     3.5122165003
