          3
Energy: -0.05999936452279421 Kcal/mole
 He     0.4359997948    -3.8377787946     1.7108633079
 He    -1.6039538307    -5.2589993891     0.2803288897
 He     0.5581752481    -4.0339365226    -1.1512238574
