          3
Energy: -2.3475505306809326E-5 Kcal/mole
 He    -5.2493873362    -7.1776795727     7.2433124248
 He     4.1188745374     3.3255551914     4.2958038332
 He     7.0561064583    -4.1557721219    -2.0321898184
          3
Energy: -0.0013644077260284825 Kcal/mole
 He    -4.5778552055     6.7299164670     1.7254381134
 He     6.0807226848     6.2822473359    -2.0087488292
 He    -0.6953729716     7.0939372586     4.9290209885
          3
Energy: -9.50624241227284E-4 Kcal/mole
 He    -0.5646587903    -7.4492061159    -2.4775240119
 He    -1.7679080603     5.6036216519     4.0530775407
 He     0.0019198049    -4.1883400608    -6.6734925529
          3
Energy: -7.189684896341253E-4 Kcal/mole
 He     0.1519288880     2.8383930540    -1.6297220447
 He     3.9670975780    -1.2412585503    -0.6327012216
 He    -1.7137628298    -2.2195271745     6.7447282696
          3
Energy: -0.001219084209972205 Kcal/mole
 He     1.2112346920     3.7526156385    -3.9514238666
 He     3.3399975098    -0.8252513858    -5.0159847793
 He    -6.0958593243     3.5474074453     1.0135387434
          3
Energy: -9.390412429272732E-4 Kcal/mole
 He    -0.4243182509    -0.8943309889     6.2190690453
 He    -4.7242410507    -1.3183551484    -0.4208171623
 He    -3.9435867414    -6.5435961717     1.1676979157
          3
Energy: -5.221672973185734E-4 Kcal/mole
 He    -4.1206570818    -4.9023066985     3.4325697009
 He    -0.5816351559     5.6457994891    -2.2857967993
 He     1.7784857196    -4.7049961095     3.9975595336
          3
Energy: -3.702625675126875E-4 Kcal/mole
 He    -5.0338749696    -1.3726430103     5.6576933767
 He     5.7628077623    -1.0683711568     1.1028668325
 He    -4.0930359573     4.5324937794     3.6497244650
          3
Energy: -9.97126321917E-5 Kcal/mole
 He     1.8222808499    -1.7430276453     3.7562612378
 He    -2.3136861602    -7.1902981681    -1.1383824541
 He     4.1816220996     1.2358854764    -5.1873470789
          3
Energy: -0.05999936452279421 Kcal/mole
 He     0.4359997948    -3.8377787946     1.7108633079
 He    -1.6039538307    -5.2589993891     0.2803288897
 He     0.5581752481    -4.0339365226    -1.1512238574
