          3
Energy: -0.0599997129131432 Kcal/mole
 He     5.8967315225     2.8993101371     1.8217967017
 He     3.2470213426     3.9900761303     1.6734240441
 He     3.8211879413     1.8626785695     3.5122165003
