          5
Energy: -0.18195744065894343 Kcal/mole
 He    -2.1897476949     1.3156380866     0.2217814452
 He    -2.6254409665     2.2669824033    -2.4449053073
 He    -0.5158388639     3.3639119496    -0.8740231895
 He    -1.3159559524     3.4922526683     1.8916060476
 He    -3.2361720563     3.9591060030    -0.2013250044
