          5
Energy: -0.0017396108570307016 Kcal/mole
 He    -5.5331411319     4.4331232168    -0.9801740070
 He    -1.0896109100     0.1126396542    -0.3891157833
 He     0.3955052813    -1.3636861574     6.1601693258
 He    -6.5316356324     5.0919280861    -6.2616075129
 He     3.7275900819    -4.8154056408    -1.7594980760
          5
Energy: -0.007745430819561829 Kcal/mole
 He    -0.9969317771    -2.5355379870     0.4694286256
 He    -3.0051741417    -5.9380613485     0.6545823967
 He    -3.5889800211    -0.7861418573    -5.6030603531
 He    -4.8870849647    -1.6467846196     4.5492505627
 He     1.9815102107    -6.8630915705     3.7534139059
          5
Energy: -4.4530952930566366E-4 Kcal/mole
 He    -7.2313249187    -0.9999764708     2.1909402873
 He    -1.6328236620    -0.4687646023    -4.1602825684
 He    -2.2280457045    -6.4873620965     5.0850773890
 He     5.0956765209    -6.9958261195    -3.0895882723
 He    -1.3037060196     5.4438649081    -0.4956682661
          5
Energy: -0.009688286572312974 Kcal/mole
 He     4.2291828875    -0.6021842046     1.9184967543
 He     7.2309328934    -0.9513386145     4.0982908342
 He    -3.4426779065    -3.1390842291    -1.4260033709
 He     0.3702053189    -1.5800954010     7.1304804596
 He     5.0196959843     3.4921887700     6.0047877345
          5
Energy: -0.0030876157584584225 Kcal/mole
 He     1.3577362788     1.5287284886    -4.2000061138
 He     3.9245795302    -3.7311640282    -5.8229593327
 He    -6.7347814868    -1.5025406809     5.4671121772
 He     5.6291590948    -1.2189228919     2.3025607006
 He    -7.2869197252    -2.5075189524     1.0818025671
          5
Energy: -0.007528718880619723 Kcal/mole
 He    -7.1749130347     3.3133281248     1.8514009354
 He    -3.6732677712    -6.7948624401     7.4641791045
 He    -6.3954988643     5.9591009087    -6.6945119518
 He    -6.0392272865    -4.3938161240     5.8657326126
 He    -0.4879840519    -7.1620679476    -6.7811227218
          5
Energy: -0.004125363695853761 Kcal/mole
 He     0.2703209810     3.2275044908     5.1123362639
 He    -3.0092372854    -6.9395550422    -6.7937565589
 He    -4.8319798211    -7.0453343617     2.3470757449
 He     4.9126943176    -1.7942530060     1.0344842502
 He    -2.8723065748    -3.3987773161     1.5465961448
          5
Energy: -0.034101833264362835 Kcal/mole
 He     0.3999410110     5.4443658213     2.6784389938
 He     3.8265436961     3.2305441192     6.0705633996
 He     7.1178251354     3.5665602419    -2.3625300123
 He     2.7392538691     0.3778204417     3.7524584143
 He     0.4011998112     2.2429056457     5.1947123315
          5
Energy: -0.16907233978036135 Kcal/mole
 He     2.5952976842    -0.0021173773     2.8891555997
 He     5.3153821721    -0.7121265607     4.0799924425
 He     4.6430999352     1.8824304054     2.4693783066
 He     4.7740677470    -1.0793288065     1.3501182467
 He     3.9903901867     1.5121167765     5.1898588483
          5
Energy: -0.18200888888821493 Kcal/mole
 He     2.6367579631    -0.1858749853     3.0833029697
 He     5.2794488446    -0.6917897030     4.0751268041
 He     4.7776373759     1.5590763771     2.3688225061
 He     4.6872952697    -1.1106651427     1.3156551465
 He     3.7729952835     1.5534393034     5.0501007460
