          5
Energy: -0.0028856096693244287 Kcal/mole
 He     4.2515174246    -0.5073920542    -4.2137188657
 He    -4.3255727456    -6.9820720173    -0.2860366060
 He    -1.8563051695    -5.9658525772    -3.9815584788
 He    -1.3336948225     2.8830374266    -3.2202819230
 He     0.9690247270    -1.1624415362     5.8439859311
          5
Energy: -0.030967498893488488 Kcal/mole
 He     0.2444412505    -0.1896429963     2.0581067921
 He    -1.2127069705     1.8509676027     1.4215181789
 He    -3.2844690482     0.2770821753     0.8063125212
 He    -6.5934682926    -3.7708089042     6.8357845831
 He    -3.2852670879    -3.8540740780    -0.5581893840
          5
Energy: -0.0010644253416819713 Kcal/mole
 He    -0.7112198255    -5.8015977245     7.1883917417
 He     4.0937089398    -1.9637924727     2.6526456438
 He     6.4304120748     3.4380431211    -2.0599128102
 He    -6.1257733885     0.8715040812    -1.4078246928
 He    -1.4180625098    -1.3209322746    -3.5713772253
          5
Energy: -9.642954138714361E-4 Kcal/mole
 He    -4.1319478725     4.1032110377     4.9737556348
 He     0.8376097054     7.1687836796     3.8802278629
 He     1.6106679205    -5.6908096477    -2.5719736802
 He     7.1017755764    -0.7799143322    -1.9857989777
 He     0.6086346084    -4.3163400652     3.9426531061
          5
Energy: -0.006995375575636615 Kcal/mole
 He     0.9414052748     1.3078496328     1.6265830994
 He     6.9330867146     2.9448859468     3.7782887887
 He    -7.1068494017     4.6595876022     7.1340545351
 He    -5.6691258486     3.7534175396     0.1634102908
 He    -3.4647940979     2.3601919117     3.4067066930
          5
Energy: -0.03860634586881598 Kcal/mole
 He     6.7015737704    -1.5536144993    -2.4414269396
 He    -0.0686986541     1.4986475262    -5.4468388316
 He     0.6391506021     3.8151263026    -4.1480347416
 He     4.0316632212    -1.2665179145     3.5748749340
 He     0.7259644906     6.2326740397    -2.4065921769
          5
Energy: -0.021786144106001507 Kcal/mole
 He    -0.6137826795     5.0227238871     3.4368896491
 He    -2.2194849638     4.0555845760     5.4962376949
 He     3.2157208906     4.8437702776    -2.4436071044
 He    -5.9742929906     3.5780426130    -6.0777587752
 He     3.8080190224     4.2573513089     5.2060977547
          5
Energy: -0.11423327219480069 Kcal/mole
 He    -4.6817200831     2.0399556406    -1.3352666367
 He    -2.1733503113     3.3238774181    -1.0664621531
 He    -1.9839046735     0.4073067511    -0.8458546471
 He    -0.6036857045    -0.8580306042     2.9781536568
 He    -2.0160121846     2.0933162855     1.5244316347
          5
Energy: -0.15853300049702373 Kcal/mole
 He    -2.3049110409     1.3397464537     0.2813698670
 He    -2.6227971770     2.3894209057    -2.5302930027
 He    -0.3247499300     3.6151057201    -0.9037373536
 He    -1.4059236927     3.1834879827     1.9781572012
 He    -3.3575775672     3.9654434930    -0.2158690425
          5
Energy: -0.18195744065894343 Kcal/mole
 He    -2.1897476949     1.3156380866     0.2217814452
 He    -2.6254409665     2.2669824033    -2.4449053073
 He    -0.5158388639     3.3639119496    -0.8740231895
 He    -1.3159559524     3.4922526683     1.8916060476
 He    -3.2361720563     3.9591060030    -0.2013250044
