          5
Energy: -0.18200888888821493 Kcal/mole
 He     2.6367579631    -0.1858749853     3.0833029697
 He     5.2794488446    -0.6917897030     4.0751268041
 He     4.7776373759     1.5590763771     2.3688225061
 He     4.6872952697    -1.1106651427     1.3156551465
 He     3.7729952835     1.5534393034     5.0501007460
