          3
Energy: -0.2069993775386884 Kcal/mole
 Ne    -1.8454551325    -4.9377740313    -3.9282656544
 Ne    -1.0894794698    -7.0723048538    -6.0772462053
 Ne    -4.0794592013    -6.6276200330    -5.3018397286
