          3
Energy: -0.0021541235954002738 Kcal/mole
 Ne    -3.3640908364     4.1807027778     1.7021417316
 Ne     3.9761237908     1.2907920363     0.2763823944
 Ne    -2.3836571341    -1.7869989164    -2.1342848672
