          3
Energy: -0.2069966810936893 Kcal/mole
 Ne     4.2995701724     5.1737594208     0.9967993866
 Ne     5.4841323156     3.1638387709    -1.0804315252
 Ne     2.4937248280     4.0332498634    -1.2761453456
