          3
Energy: -0.20699786921176622 Kcal/mole
 Ne    -3.2349470649    -0.5446171161    -0.4877505555
 Ne    -3.8818750260    -3.0022582223     1.3275195200
 Ne    -4.7783420662    -0.1429196613     2.1954533340
