          3
Energy: -0.20699940925643298 Kcal/mole
 Ne     1.4715887906     2.7737867678     4.2848940482
 Ne     2.0817026973     0.4805276023     2.2597655541
 Ne    -0.8727943222     1.2286244235     2.9259302141
