          5
Energy: -0.7538710247136704 Kcal/mole
 Xe     4.9196068339    -9.1635001624     6.5916828044
 Xe     4.5593170000    -0.1007389929     4.6468502722
 Xe     8.9606611758    -5.1302471269     6.1425745876
 Xe     4.9398017484     1.8785110868     0.4371318559
 Xe     6.3230103931     7.1767162680     4.0526740015
          5
Energy: -0.8099781186608921 Kcal/mole
 Xe    -4.3108611395    -9.0173509944     0.0948329002
 Xe    -9.3701292376     6.2977494647     5.1818216949
 Xe    -2.3598378280    -7.3643892202    -5.6756764524
 Xe    -7.7089133224     2.8619106913     6.8579013481
 Xe    -1.0797314844    -6.2259255631     2.5453411367
          5
Energy: -0.8613765237273623 Kcal/mole
 Xe     7.0422369714    -1.1529636572    -0.6606334088
 Xe    -3.5846297784    -2.9995532187    -5.1480082379
 Xe    -1.2342067793     7.0977111250     4.4572580397
 Xe    -1.2236814434     9.1245256586     8.0493617592
 Xe    -5.1588581305     9.9733061262     4.1876939927
          5
Energy: -0.41248219408184705 Kcal/mole
 Xe    -1.6508523348    -8.5196172087    -0.8960561948
 Xe     7.2792889399    -8.0632198971     8.6943818690
 Xe     0.2192169542    -0.0648820088     3.8668221839
 Xe     1.7650294938    -4.7545910418    -4.2289991152
 Xe    -5.5254471501    -5.4757533183    -2.9677360066
          5
Energy: -1.1352668711656255 Kcal/mole
 Xe    -3.1179012089    -4.4125670026    -5.2884788634
 Xe    -0.3852089839    -8.4425184444    -9.2376489049
 Xe    -6.5508207664    -5.0558100881    -7.8646339564
 Xe    -4.0267871831    -0.1789436988    -5.4668361582
 Xe     8.1870367520     1.4951642604     9.8029267945
          5
Energy: -2.936998478726202 Kcal/mole
 Xe    -1.7387242755    -8.3730178290    -9.0392193822
 Xe     0.4928114714    -0.4999034098    -8.5438942956
 Xe    -2.5203807335    -3.7564602886    -9.5989092497
 Xe    -2.8370669886    -1.7647788458    -5.9395467509
 Xe    -0.3067096041    -5.6799682706    -5.6271712886
          5
Energy: -2.755084360118474 Kcal/mole
 Xe     5.3432237659    -1.8722869221    -4.4645885997
 Xe     0.6939925037    -0.4733479034    -1.2897613916
 Xe     2.1751849863    -4.5394875400    -3.2551319468
 Xe    -0.3655868957    -0.7320111623    -5.2882442042
 Xe     1.1801924653    -3.8971978988    -7.8515270414
          5
Energy: -3.510075776662922 Kcal/mole
 Xe     5.2920152000    -3.0581391017    -5.2901059467
 Xe     2.7828500193     0.5275295706    -4.8340737345
 Xe     4.7919909495    -1.5714052349    -1.3685187475
 Xe     6.2167436913     2.3582117877    -2.0697146824
 Xe     7.1660417978     0.7858074896    -5.8093166220
          5
Energy: -3.827165514060802 Kcal/mole
 Xe     7.3022884847     1.4539519315    -8.1386927521
 Xe     4.5766563622     3.7810789758    -5.6635076790
 Xe     4.6434151344    -0.8951875245    -5.6232311906
 Xe     3.9741548837     1.5502348008    -1.7869820670
 Xe     7.9341048225     1.2549709435    -3.6408350093
          5
Energy: -3.9409100757194193 Kcal/mole
 Xe     7.5118232385     1.5218059190    -8.0648968276
 Xe     4.6793197261     3.8090102037    -5.5627323325
 Xe     4.6459647406    -0.6289600128    -5.5128927064
 Xe     4.0719617278     1.6404991610    -1.7835427908
 Xe     8.0140138935     1.5910531355    -3.6974997268
