          5
Energy: -3.9410928555953575 Kcal/mole
 Xe    -6.0992769574    -4.7013682669    -0.7799423161
 Xe    -7.4581552780    -7.8766840841    -3.5258462333
 Xe    -5.6663351777    -8.9537803818     0.3553097366
 Xe    -6.8278817729    -5.9531320248     3.3916669290
 Xe    -9.6814806999    -7.0737859223     0.2185410844
