          5
Energy: -3.9414060578709362 Kcal/mole
 Xe     5.8481871488     6.1043883481    -0.7843948330
 Xe     4.7620304621     2.1252512552     0.7878320036
 Xe     5.7129775446     2.6410447683    -3.5011737576
 Xe     1.9713763090     4.3220045127    -1.8764305757
 Xe     2.4371457995    -0.0536103086    -2.2674219559
