          5
Energy: -3.941557437235959 Kcal/mole
 Xe     0.4739899367     2.2865054927    -1.3363205220
 Xe     4.0287562695     3.6927960652     0.8649063445
 Xe     4.5002521505     1.6378187535    -2.9917803193
 Xe     0.3645254902     6.1530572977     0.7751830567
 Xe     2.8057864651     5.7060679999    -2.8776505343
