          5
Energy: -0.5339135395439861 Kcal/mole
 Xe     3.2029990629    -1.0996691324     4.0747805212
 Xe     3.8922892489     8.2259646083     4.5882742903
 Xe    -1.2225075364     4.9608733380    -7.6641918750
 Xe     0.5585219700     9.5134309749    -7.0533855130
 Xe     2.4765314823    -3.3714013605    -1.0009521223
          5
Energy: -0.2419541131930742 Kcal/mole
 Xe    -1.5152016952    -7.1420695530    -6.1204755790
 Xe    -2.5028041051    -2.3762330624    -2.5217741523
 Xe    -9.7187592655     6.0270934726    -5.9662207080
 Xe     4.4120521569    -5.3075467213    -6.8984992455
 Xe     5.6157409975     8.0599165095    -9.6798374564
          5
Energy: -0.7673151359397598 Kcal/mole
 Xe    -8.5864410008    -3.4521127831    -6.4642755282
 Xe    -6.2747316773     0.9149376603    -7.0769237763
 Xe    -1.2947977626     3.3213142774     9.6077296315
 Xe    -0.5790802766    -6.2968857147    -2.8146988406
 Xe    -3.1349316420     7.2745538974     8.6063474145
          5
Energy: -3.2092570631336255 Kcal/mole
 Xe     0.5814028882    -3.3047581520    -3.9598972051
 Xe    -0.0469821508     0.7905030147    -3.3177278894
 Xe     2.8632483731    -0.2112594988    -0.6503378448
 Xe    -0.8325858939    -2.1267781405     0.4519583065
 Xe    -4.0369348194    -1.1885878398    -2.3179369205
          5
Energy: -3.1420055014047477 Kcal/mole
 Xe    -5.0701815595    -2.6399695171    -0.8399111094
 Xe    -2.8193511975     1.0340403461    -4.5854652871
 Xe    -0.5869565110    -2.7422571628    -2.4569171314
 Xe    -3.6755510872    -6.4457612624    -2.5563077267
 Xe    -3.3003006041    -3.2527798954    -6.0190983705
          5
Energy: -2.8584604693055082 Kcal/mole
 Xe    -5.0238102591     3.4637355194    -1.5906819837
 Xe    -4.7771653614    -1.5588981857    -3.7021005299
 Xe    -3.6242830641    -0.5223264026     0.2611688723
 Xe    -1.8450611526     1.8627437075    -3.5178858255
 Xe    -8.1970177633     0.2941791712    -2.7789928331
          5
Energy: -3.4858362062895667 Kcal/mole
 Xe    -0.5728573478     0.7738834823    -4.6462580115
 Xe     0.5285800394    -2.2255011407    -1.3261994772
 Xe     2.6333499528    -1.6851333374    -4.8715272670
 Xe    -0.9478191715     1.9448561992    -0.5831482248
 Xe     2.8843295051     1.8463202122    -2.2559439754
          5
Energy: -3.3252251758382916 Kcal/mole
 Xe    -0.0567520040     3.3738302486    -3.2031716271
 Xe     3.1393681622    -0.1954844750    -2.1493184515
 Xe     0.5123963088    -0.0439335136    -5.8424083879
 Xe     3.3004204196     4.3408996955    -0.0062749797
 Xe     4.4649231555     3.0879132532    -4.5285805751
          5
Energy: -3.8202125826839257 Kcal/mole
 Xe     0.4587721495     2.2994234326    -1.3503020980
 Xe     3.9545416276     3.7043886918     0.9544972124
 Xe     4.7377063283     1.6872035050    -3.1471615057
 Xe     0.4203941375     6.3146159655     0.6255623856
 Xe     2.9795599474     5.5320323192    -3.0166423749
          5
Energy: -3.941557437235959 Kcal/mole
 Xe     0.4739899367     2.2865054927    -1.3363205220
 Xe     4.0287562695     3.6927960652     0.8649063445
 Xe     4.5002521505     1.6378187535    -2.9917803193
 Xe     0.3645254902     6.1530572977     0.7751830567
 Xe     2.8057864651     5.7060679999    -2.8776505343
