          6
Energy: -5.50336490931658 Kcal/mole
 Xe    21.2640401270    -3.3822363848   -10.3573264268
 Xe    19.9517198128    -6.3768183899    -7.4339766612
 Xe    18.1947609071    -6.3397262540   -11.4528024785
 Xe    20.8870659667    -9.5964981506   -10.2698576182
 Xe    23.9615429372    -6.6524114008    -9.1777125354
 Xe    22.2270118193    -6.6025527579   -13.1951887956
