          6
Energy: -7.235752441674856E-5 Kcal/mole
 Xe    15.6665732357     2.6950325398   -19.9163880726
 Xe    11.6944319367    24.0282452578    19.1529680518
 Xe     0.7909076825     3.9451902911    22.0115537953
 Xe    25.7003647934   -17.6678815704    22.4026056625
 Xe   -21.9665841551    -1.4988793562     0.2644008904
 Xe    -1.5708662306   -24.7339392354    -5.7407687603
          6
Energy: -0.04513612505592728 Kcal/mole
 Xe    -0.5147971986    18.1771719210    -4.6778681595
 Xe   -11.6386034575     0.9377480609    22.9802309477
 Xe    18.0364622554    -0.4231463844   -13.5232995105
 Xe    21.6642258483   -16.7564829844   -15.7642739500
 Xe   -23.9156835140    -5.9799273518     1.4250795656
 Xe    22.0789812801   -22.2736033908   -20.3785017882
          6
Energy: -0.5012502677639458 Kcal/mole
 Xe   -24.4587060926     7.8034852801   -20.8831764848
 Xe    23.0794385705     5.7924167476    -1.6445297540
 Xe     9.3015017103   -13.1611780856    -7.6957766098
 Xe    15.5902715095   -16.7971230981    -7.9002984838
 Xe    20.4616291148   -10.6041914119   -10.9385740405
 Xe    17.4642447328    -7.5068094104   -12.1815793628
          6
Energy: -3.4822317319438842 Kcal/mole
 Xe   -22.1662672401    14.6514497716    21.7072864395
 Xe    19.0693578204    -9.0620789057    -5.3610248043
 Xe    17.5241235662   -12.7810623434    -7.9729595979
 Xe    18.8997369796   -13.7510607617    -3.7590543559
 Xe    15.2880991709   -11.3526325565    -4.3787522680
 Xe    14.3612784080   -15.4216655209    -6.2898036394
          6
Energy: -3.743901424463515 Kcal/mole
 Xe    -5.1397257870    -6.5296681700    14.1304763728
 Xe    23.7435156391    -8.3439979824    -7.7478229708
 Xe    19.7682638045    -7.7297554809    -6.7968672105
 Xe    20.9107125238    -6.3190782323   -10.7341024268
 Xe    25.2768633981    -5.5459614172   -10.6687186653
 Xe    22.6424345405    -4.0491731554    -7.2221227735
          6
Energy: -3.336515229568025 Kcal/mole
 Xe    -1.2391385833   -13.9029475974   -16.6878715046
 Xe    18.1037139053    -5.1879726377    -8.1639703613
 Xe    18.3423404660    -8.6084697903   -11.4723631514
 Xe    22.2188215147    -7.4134865749    -8.3474412701
 Xe    22.0794022644    -3.1347701552    -7.1259659070
 Xe    21.4848164314    -4.7367598855   -11.3371684055
          6
Energy: -4.855891886012085 Kcal/mole
 Xe    19.4866700141    -8.0672709205   -10.3802345126
 Xe    24.0146946975    -8.7474928345    -9.3323105602
 Xe    21.6376719014   -11.6591294475   -11.1562805938
 Xe    25.5981305367    -5.4069267183   -11.4078623875
 Xe    21.3098408452    -4.1484212693   -11.0161914184
 Xe    22.6456880467    -7.9744925708   -13.3454638070
          6
Energy: -5.260245323241153 Kcal/mole
 Xe    22.8026921469    -5.8390191018    -6.7820198394
 Xe    23.1084387365   -10.1888741753    -7.3829978144
 Xe    19.3791144000    -8.1359511947    -8.2495337040
 Xe    21.6185789050   -10.1185922096   -11.4350669957
 Xe    24.9620835992    -7.6736676540   -10.0829562046
 Xe    21.4016411229    -5.4713603769   -11.3701844752
          6
Energy: -5.4576710547813425 Kcal/mole
 Xe    21.2773949110    -3.4091192071   -10.3080975363
 Xe    19.9504782330    -6.4154697090    -7.4969020189
 Xe    18.1947609071    -6.3397262540   -11.4528024785
 Xe    20.8883573208    -9.5730213675   -10.3038534945
 Xe    24.0232273213    -6.6317844341    -9.3109416229
 Xe    22.0231360963    -6.5961742192   -13.3142690077
          6
Energy: -5.50336490931658 Kcal/mole
 Xe    21.2640401270    -3.3822363848   -10.3573264268
 Xe    19.9517198128    -6.3768183899    -7.4339766612
 Xe    18.1947609071    -6.3397262540   -11.4528024785
 Xe    20.8870659667    -9.5964981506   -10.2698576182
 Xe    23.9615429372    -6.6524114008    -9.1777125354
 Xe    22.2270118193    -6.6025527579   -13.1951887956
