          6
Energy: -3.0306184045835938 Kcal/mole
 Xe    22.0677097380     4.2122429307   -11.6464244017
 Xe    25.3750966640     5.7809730588    -9.1577295356
 Xe    25.8506993560     5.4949582609   -13.5365888908
 Xe    25.7409482440     1.8103671553   -11.0708853997
 Xe    -5.5681807109    -4.3702191925    -2.8119776162
 Xe    -3.3006675534    -7.8842811954    -4.2308821422
