          6
Energy: -0.0016218719250609985 Kcal/mole
 Xe     4.7606062850   -24.5532068317    -1.8776089506
 Xe    -4.6560673011    -4.3582982469    -6.9577729064
 Xe   -12.0005023893    -1.1777343214   -21.4771303483
 Xe    11.6327512818     6.4244419529    15.7130139505
 Xe   -15.8940672584    -8.6862826908     6.1727269124
 Xe     0.1162658719   -14.8101098506     8.2411568058
          6
Energy: -0.09655385390769347 Kcal/mole
 Xe     8.4663261306    -4.5634052155    21.1340352576
 Xe    -3.6785775481    17.7496742421     2.6021005554
 Xe   -16.3741685888   -24.7292511782   -19.3980169501
 Xe    -3.0328529237    22.3126060442     7.5691721799
 Xe    -3.7994543702    13.0121613770     9.0937726034
 Xe   -13.5789379342    -2.4311585901    20.9522515685
          6
Energy: -7.855502430909968E-4 Kcal/mole
 Xe   -24.1748354441    18.6352108383    23.8993056177
 Xe    22.4233249317    10.8925806509    26.1395890476
 Xe    -9.8759780541    20.3982980205    21.9738414513
 Xe   -22.7194707113     9.7083962235   -15.4557006286
 Xe    -1.8004891395     1.5325764887   -13.3053641768
 Xe    -6.1287818080   -19.9380292993    -5.4540921731
          6
Energy: -0.04938351899019896 Kcal/mole
 Xe     4.1471893888   -15.1137634439    21.4123654080
 Xe     3.4203636232    15.5964424692    26.2375408961
 Xe    -0.2093825414    17.9583262933    -2.4037399464
 Xe    -8.5736193254   -12.5041154440   -15.5391926690
 Xe   -20.4245698453     2.0678879047    23.1257112653
 Xe     3.8918105260    23.4695170740    -0.6673787567
          6
Energy: -0.003095738121979242 Kcal/mole
 Xe   -19.9324003337   -16.6213341505    26.0400983501
 Xe    11.8179938624   -17.6155660402     2.7151909555
 Xe   -20.0201835631     2.6842861379     1.6948791728
 Xe   -21.8481361385    14.5562792038     2.9330107766
 Xe   -17.3471667193    -4.7768592305    13.8049864695
 Xe     0.4879098134    22.2609082263   -17.0914672411
          6
Energy: -1.2554011651419482E-4 Kcal/mole
 Xe   -10.7455005403    -2.8991574995     5.5972011273
 Xe    -9.0781738255    25.1950569390     5.8894743432
 Xe     9.3254882966     0.9234315231    -7.6978496927
 Xe    18.0134548001    23.2419430665    25.9820070561
 Xe    14.1476471544   -21.9179416576     6.1728033770
 Xe    18.0265408423    18.3308248695   -20.0218622793
          6
Energy: -5.999867101347076E-4 Kcal/mole
 Xe    22.2794369613    22.2473947661    12.0803785671
 Xe   -22.7219911285     9.3641741293    -9.2977949327
 Xe    -3.2173551957     3.2244337685     5.4169650902
 Xe   -22.8350316466    -8.7450722130    22.2174693437
 Xe    17.2517183591    -4.8715699896    -7.6616041540
 Xe    10.6304083391     0.2038967182    12.1676021672
          6
Energy: -0.001286001177808348 Kcal/mole
 Xe    -8.7880979725    15.7300138314   -17.8080441226
 Xe   -25.1412331553   -25.6598219846    -3.8751809910
 Xe   -25.1222519749     3.3977421315    -5.4707595896
 Xe    -5.3424676507   -21.9602872288    19.0278376259
 Xe    -4.4929121642   -17.1394923076     4.3676424715
 Xe     9.8778162441   -19.6626845595     3.2210142823
          6
Energy: -0.8439123509205524 Kcal/mole
 Xe     7.1207624056     0.1226444216    -2.7789071501
 Xe   -22.1095990219   -23.9022854462     3.3219360503
 Xe    15.4464245152    15.4621750166     6.0488455077
 Xe   -22.2725600741   -24.4367398732     7.8970545065
 Xe   -16.2976507247    -2.7284213850     4.9662583682
 Xe   -14.4929017353     1.0631723064     6.2637141473
          6
Energy: -1.3002210777132222 Kcal/mole
 Xe     5.8416256301     9.7844581957     3.8321741014
 Xe   -22.5178362467   -21.0775010571     2.5008650890
 Xe     9.4406486532    12.3403294315     3.9944203008
 Xe   -19.8235459923   -17.7257382514     3.5020678489
 Xe   -14.7062501174    -4.2341465209     4.5981270952
 Xe   -11.0008843961    -1.8343664480     4.8222182165
