          6
Energy: -2.5979986917071543 Kcal/mole
 Xe    -1.9580150588    13.5229527420    14.2723843470
 Xe     2.2519262893    14.8123212701    14.6351634993
 Xe    -0.5821219101    15.5822296454    17.9353540746
 Xe     8.1972677560   -21.9715476220    17.0561955424
 Xe    12.2984968178   -20.3739140644    16.6772119514
 Xe     8.9338546884   -18.3282151037    14.6759833546
