          18
Energy: -70.60334390890394 Kcal/mole
 H     -4.8010576267    -1.5028359347     5.8722948534
 F     -4.8125805610    -2.3550394667     5.5339084441
 H     -0.6239061258    -5.4986002039     2.9498286368
 F      0.0185473088    -5.4847802214     2.2956485451
 H      1.1365693176    -3.0700786839     4.0884251243
 F      0.6616308280    -2.8509553066     4.8416232235
 H     -3.2790524073    -2.8284006127     5.2325519850
 F     -2.3884893367    -2.9993638280     5.0963242480
 H      1.2017453300    -4.3319304960     2.4405468382
 F      1.7452802440    -3.6332117648     2.6798185078
 H     -1.9324751708    -4.5027172264     4.5503492201
 F     -1.7167639961    -5.3182694552     4.1908603451
 H     -3.5720523408     0.0735931198     6.7321336295
 F     -4.4469883416    -0.0041748931     6.4688312734
 H     -1.3418090029    -0.1698532691     6.4063237765
 F     -1.9538076857    -0.0209198898     7.0727811726
 H      0.0220568281    -1.3314090961     5.0573261590
 F     -0.3067628049    -0.4816989083     5.1610529426
