          6
Energy: -0.01924924706552638 Kcal/mole
 He    -4.7454313843    -2.4364925562    -5.4589048608
 He    -5.4049629088    -4.1576108985    -1.3846003146
 He    -6.1092057141    -7.4277841120    -3.5720542859
 He    -3.1945015572    -3.0651635515     2.8335879818
 He     3.5609753610     1.8555631775     0.9379772098
 He     0.1378659408    -4.1703708212     3.7542105895
          6
Energy: -0.0019603093733436125 Kcal/mole
 He    -5.0527316354    -0.8581991424    -7.0767068924
 He     2.1919354480    -3.6813274778    -1.6792063006
 He     5.5608870919    -1.5348091685     1.7750806568
 He    -4.9605453173    -5.3124072595    -1.4203205181
 He    -3.8619017862     4.8680303291    -4.4043240422
 He    -0.4275709404     2.8764205916     3.2382012389
          6
Energy: -0.01106046455357855 Kcal/mole
 He    -0.3060016538     0.3863044869     4.3235436495
 He    -3.7731737828     6.4331346204     1.8455302099
 He    -6.1809485210     2.1496994761     0.5759980270
 He    -0.6521243550    -3.2635628831     1.8511988215
 He    -1.6737344714    -1.6399168143    -1.5974934103
 He     6.3192359797     1.5532978675     2.3554503956
          6
Energy: -0.01358797723523595 Kcal/mole
 He     7.4220181181     4.8950937424     2.3741332497
 He     2.9886874193    -1.2060786798    -1.7265865702
 He     6.0407504491     3.2246725469     5.2503042781
 He    -2.2357442656     0.4640236497    -1.3367150941
 He     3.5169682627    -4.6854944048     5.6303735898
 He     4.4608202023     5.6827061583    -0.7400094217
          6
Energy: -0.022357697879281862 Kcal/mole
 He     3.8371967629    -6.3787176504    -0.6073241495
 He    -3.8953185265     0.2304178191    -5.4341243105
 He     4.1242641169    -0.5162894173     2.5994312736
 He    -1.4156109222     5.6413396656    -2.9284369890
 He     3.6622582199     2.1975712093     4.0788741838
 He    -0.6037110187     3.4302005139    -6.6375998262
          6
Energy: -0.006529473367995081 Kcal/mole
 He     6.0508300842    -4.2940873944    -2.5377176865
 He    -0.5336634722    -6.0863617422     6.5214533965
 He     7.1350461422    -0.3782183117     5.4815441853
 He     6.6676012901     3.0896739398    -1.7531061758
 He     3.4964899219    -6.5349469299    -0.1098907051
 He     1.0459086962    -4.8478417374    -4.3693035364
          6
Energy: -0.00695995896546825 Kcal/mole
 He     6.8067895310     1.2557078955     6.0782321997
 He    -4.9540855480    -2.4822985883     4.1508855436
 He     3.6512798662    -4.0918235466    -4.0791350765
 He    -1.8148580806     0.6278394860    -0.6873582531
 He    -0.6532769632    -2.8232111103    -2.5751314006
 He    -6.3852371516     6.7176751415    -2.5976828063
          6
Energy: -0.05196889853517528 Kcal/mole
 He     0.1092394906    -1.3412156679    -6.5074145258
 He    -0.8205439849    -3.6906256104    -5.8327484299
 He    -4.7853782397    -2.0810978976    -7.2906675039
 He    -7.2970506046     7.1922850831    -5.3346172584
 He    -3.2320948550     0.4085363831    -5.4919885399
 He    -2.1105521032    -5.3993354850    -4.1382482953
          6
Energy: -0.06500719465079793 Kcal/mole
 He     6.0942959449    -1.3341787475    -3.4699214991
 He     4.7242717155     0.9491666636    -2.0998963957
 He     3.5761711070     1.7081253479     6.4475416918
 He     2.0778108953     4.8701704723    -7.3942838215
 He     3.0417487756    -1.0760992663    -3.1201148627
 He     0.3734066938     0.7355222251     4.9422234597
          6
Energy: -0.24589930448793149 Kcal/mole
 He     5.6924897171    -0.8700211120    -3.9513017127
 He     4.8734285434     1.2344859959    -2.2004616087
 He     4.7224470791    -1.4919810175    -1.3584900187
 He     4.2382871209     1.3830356091    -4.9667934316
 He     2.9113936264    -0.5425849107    -3.3391873663
 He     2.6295591610     0.3712040025    -0.6571510901
