          6
Energy: -0.2459284814524146 Kcal/mole
 He    -1.4039713064     1.2798280007    -2.1752899756
 He    -4.2372177167     0.9527717243    -2.3619916753
 He    -2.3068189217    -3.2388399341    -1.5098038727
 He    -0.2134658557    -1.2881425320    -1.6400821422
 He    -2.7464870900    -0.5989892588    -0.4944114133
 He    -2.5126374022    -1.0686137177    -3.3446273996
