          6
Energy: -0.24566936765820205 Kcal/mole
 He     1.2704156205    -2.2117332834     4.5614008606
 He     1.0877803997    -5.0425568230     5.0638332113
 He     0.8733709721    -3.1511338395     7.2164848169
 He     3.0065036220    -4.0009734594     3.1660681951
 He     4.0038292952    -1.4734979169     4.1088929958
 He     3.3836200113    -3.5318583060     5.9779248485
