          5
Energy: -0.06846691049020337 Kcal/mole
 Kr    -9.0416417594     0.1543441909     8.7643779791
 Kr     3.8189098282    -5.3170904573     6.7101091147
 Kr    -1.1109965045     1.1468225748     6.9793901294
 Kr    -3.0554391010     6.8065695833    -4.9092488934
 Kr     2.4240443125     5.8549100198    -7.6891660523
          5
Energy: -0.0061546220018622935 Kcal/mole
 Kr    -3.6931803558     8.4284455755     0.4281500637
 Kr     3.9961402282    -7.6772235599    -7.4748027753
 Kr     4.4531006287     3.7750729219     7.9649456219
 Kr     8.0321639192     4.0671726725    -3.3464424353
 Kr     3.2363989897    -8.7129861929     2.9489487085
          5
Energy: -0.5758447520534594 Kcal/mole
 Kr    -4.7074323710     8.0149902892     7.5194591300
 Kr    -7.0527067295    -6.7710083026    -5.6220246860
 Kr     4.2762129918     2.7767987321     3.9407538744
 Kr     6.0590181119     7.6346611572     6.0986432540
 Kr     5.2842557078     3.1175143896     7.9069656472
          5
Energy: -0.7522740067122698 Kcal/mole
 Kr     7.4019445730    -5.7729258628    -3.1084776920
 Kr    -4.9175933827    -4.7811495348    -3.6358242117
 Kr     8.2210508590    -8.4399385397     3.5292002884
 Kr     8.9139450588    -3.4512729896    -0.3268173053
 Kr     3.6197631088    -3.9692617212    -2.0676126440
          5
Energy: -1.054683294917131 Kcal/mole
 Kr    -7.8492147394     2.9530394934    -0.2601844307
 Kr    -6.6518244649    -7.2541576001     7.2467759752
 Kr    -6.7143025078    -2.1103490329     7.0959648979
 Kr    -7.0488799688     3.0201775589    -4.2379123251
 Kr    -8.3801075925     6.6140055720    -2.2008739041
          5
Energy: -1.7805637560914551 Kcal/mole
 Kr     1.0437976642    -0.3344375780     5.8230816730
 Kr    -1.2214349451     6.8615429876     5.1224910153
 Kr    -3.8392203401     7.2015250286     7.8018466306
 Kr    -1.2927404296     2.9904058391     4.1051349468
 Kr    -0.6913088557     4.6366188358     8.3434440607
          5
Energy: -1.9807003157737988 Kcal/mole
 Kr     3.7718764068    -0.4538609003     4.0383204539
 Kr    -0.0072569422     0.0481899194     6.9022214131
 Kr    -3.0068415844     3.0237592717     4.5727481496
 Kr     1.1854067887     3.2044130411     4.4112130583
 Kr    -1.0602416071     5.2276281152     7.5428796463
          5
Energy: -2.4361737560754975 Kcal/mole
 Kr     0.7826451432    -1.5841460282     5.5536879470
 Kr     1.8634481422     2.2955608840     4.1192875683
 Kr    -1.2165527739     4.6479378983     5.0084123808
 Kr    -0.5088204429     4.0368731396     1.2405246561
 Kr    -2.1365133493     0.8930920024     3.3206053371
          5
Energy: -2.6563733076067786 Kcal/mole
 Kr    -1.0068462662    -2.3363874993     3.1098688187
 Kr    -1.9742989428     1.4904737649     2.8145401622
 Kr    -1.6433138020    -0.7465329009    -0.6335033303
 Kr    -0.0022300831     3.2895316888    -0.3717574252
 Kr     1.4579647708     0.0964219770     1.6722890410
          5
Energy: -2.885508173990462 Kcal/mole
 Kr    -1.3311466151    -2.2591987881     3.0843162798
 Kr    -2.0960878879     1.7103981191     2.7024731937
 Kr    -1.8535164576    -0.6581921894    -0.6117285789
 Kr    -0.3127572596     3.0881621462    -0.6911487772
 Kr     1.5035618229     0.2173892243     1.5426840480
