          5
Energy: -0.06933682387674885 Kcal/mole
 Kr    -2.6477084778     5.6436822304     0.2000026273
 Kr     2.5423916459    -1.0631225165    -1.7671695850
 Kr     1.8410947501     1.7952345239     5.3217949954
 Kr    -5.2578284050    -2.7455070272    -5.0055961426
 Kr    -0.5099077028    -5.2246369950     5.1080554306
