          6
Energy: -2.131375654836527E-4 Kcal/mole
 Xe   -17.5435616317   -13.4788777519   -32.8997360254
 Xe    23.4878006949    22.4264841265    36.6481914098
 Xe    32.8706158641    37.4949954650    38.4078916104
 Xe   -39.5141461073    29.1819852592   -32.3074755121
 Xe   -10.2143495692    15.8173685373   -11.6886940310
 Xe    10.8293949837    -5.8476178602    -2.5064532685
          6
Energy: -4.501034269499757E-5 Kcal/mole
 Xe     9.5776004250   -17.7570056025    15.2473254284
 Xe    -9.9291286317    23.0691939837    29.0170021245
 Xe    27.3714876467    35.2157812338    -5.1037969156
 Xe   -35.5390537110     8.8204198374     8.2391709880
 Xe    -0.8787584168    11.3300238028   -20.9520735346
 Xe   -12.0382156098   -26.9142522616    18.7053566222
          6
Energy: -2.89279105766005E-5 Kcal/mole
 Xe    12.9424869605   -12.2252727108    37.9577048481
 Xe    11.3527280544     1.5589878047     7.1802181932
 Xe    30.7371834616    32.5401577463   -27.5339814209
 Xe    -8.6714342044    28.4902327304    34.8642497996
 Xe     5.2218750446    32.6930269544   -21.9606116017
 Xe   -39.3852222025     6.5958925210     2.3169978757
          6
Energy: -5.149690895425287E-4 Kcal/mole
 Xe    22.8930353618   -17.3625851884    21.3436877700
 Xe    39.2268427234   -17.3401897631    35.6029669461
 Xe     5.3222657025    30.7093315035   -33.7005699055
 Xe    -4.0272853675    34.8535090106    27.6620215573
 Xe   -16.6239963438    38.6506660280   -10.8821563390
 Xe    -7.4773567262    27.7512568597    14.1244507766
          6
Energy: -2.9701363197806867E-4 Kcal/mole
 Xe     7.3616324824   -34.4629089481     8.9375623157
 Xe     6.6041168702   -32.2807793448    34.4022431377
 Xe   -26.2082597516    13.4056524646   -10.2375179751
 Xe    -6.3686759398   -23.6755398849    26.8664869076
 Xe     7.6235608010     2.8539020291     1.3960972008
 Xe    -7.3764568739    40.7798046073    38.5142279178
          6
Energy: -0.09673640805170555 Kcal/mole
 Xe    25.9898579547    -7.6795668193    19.9808933935
 Xe     1.9589578923   -18.4664538362    17.2933364365
 Xe    -0.8914031301    21.9912683211   -10.0037118345
 Xe   -29.1415406359   -33.7363425574    -3.2774700675
 Xe    24.6103136720   -10.6336175438    25.3739406692
 Xe     2.5631056039    23.8021236154     9.0537557577
          6
Energy: -0.8009195958458023 Kcal/mole
 Xe    27.3873793759   -24.4275305331    28.3625816737
 Xe    31.6873850029   -13.2987575250    33.4995920162
 Xe   -28.1365851373    -5.9467935881    22.0311240614
 Xe     2.1236447353   -17.1959903137   -33.4806505542
 Xe    30.8828876331   -22.5138531507    29.8764521114
 Xe   -30.3878995899    -3.0150077493    24.0440875553
          6
Energy: -1.7039119977945427 Kcal/mole
 Xe    31.0390105547   -26.1736099581    30.3804195864
 Xe    26.8373210068   -25.6608006965    31.2779134273
 Xe   -19.6540564380    -5.4569005187    28.0144779241
 Xe    40.9085781857     4.1270049924   -25.8924886778
 Xe    28.2151985980   -27.0656476686    27.2727497128
 Xe   -20.6925955459    -1.5553316971    29.9831932439
          6
Energy: -1.7077415388565556 Kcal/mole
 Xe    22.6987636432   -28.2514042942    28.5675953287
 Xe    25.9401552702   -27.1148431904    31.4331186019
 Xe   -11.4223560349    -8.3244208501    26.3408035342
 Xe    35.5888341210    -2.4085401277   -40.2233603108
 Xe    26.8427351957   -27.4834837513    27.1776050200
 Xe   -11.2786581220   -11.7876277043    23.8334928800
          6
Energy: -3.0308264336985555 Kcal/mole
 Xe    22.5559471700   -28.2538499419    28.4627708267
 Xe    24.8566543105   -25.2794094641    30.7840173064
 Xe   -10.6038020038    -8.1593190437    26.2397036252
 Xe    22.4334344403   -23.9785306211    27.3270768260
 Xe    26.1053582978   -26.3484067302    26.6824309571
 Xe   -10.4434933549   -11.8652466599    23.8431129258
