          6
Energy: -3.0307254003324373 Kcal/mole
 Xe    38.9131576820    20.6574949344     0.6693518750
 Xe    26.3888309788   -12.5144838103   -21.2237625321
 Xe    34.7658153312    20.7000547438     2.1790383424
 Xe    36.3530994407    24.2220660806     0.0477978690
 Xe    25.8501916516   -13.1574119421   -25.5604958061
 Xe    35.5220093632    20.4817437972    -2.1602238848
