          6
Energy: -6.335029862810793E-5 Kcal/mole
 Xe    32.7587600280     2.2211661855    12.7646923715
 Xe   -17.9129222798   -36.0623392444     2.6950078116
 Xe    13.4536660607    -5.8140690551    23.4584502637
 Xe     7.5755095875    -6.7410402152    -5.5550451896
 Xe   -23.2271401272    25.3583277056     0.0624334016
 Xe     6.7157773790    22.0052703284    40.4884734328
          6
Energy: -5.972733075920593E-5 Kcal/mole
 Xe    24.7576592310   -19.2916132627    -4.8284692681
 Xe    19.2343814599   -17.4743010302    37.3803196864
 Xe   -24.1212465360   -18.9549771132    19.5931613409
 Xe    40.8979276414   -30.3216001584   -15.5371847043
 Xe   -15.1838596069    -4.9771991457   -37.7009308753
 Xe    -8.3674415078    10.4867654227     5.8068066868
          6
Energy: -1.4077334021372887E-4 Kcal/mole
 Xe    30.0077904934   -20.1258603991   -25.3147549140
 Xe    10.6743724312    34.2781881313     0.2377253800
 Xe   -33.1087672586   -33.9665169857    27.6524756558
 Xe   -28.4708242658   -27.8859283823    10.0809430898
 Xe     5.5247259150    -1.2180859094   -38.8715532726
 Xe   -14.5124126711   -27.5932958396   -37.1649778497
          6
Energy: -8.658553830105931E-5 Kcal/mole
 Xe     8.3496615972   -14.4588742298   -25.0017735707
 Xe    -9.5668442441    11.6004451879   -10.3744566678
 Xe     9.1660522021     2.1213363029    21.7872165550
 Xe    -9.9911058241   -14.8571160216    30.8488678136
 Xe    -8.9009983877    13.4342604296   -35.9870232299
 Xe   -20.8409807795    -7.9462898153    -0.3741256457
          6
Energy: -3.7436769738001736E-4 Kcal/mole
 Xe   -40.9535859021   -12.1313127831   -15.0928503531
 Xe    -3.1770940915    -6.1973111931    -2.2796070893
 Xe    14.8294501730    -1.2492430702    24.0863209480
 Xe    32.4403172921   -33.3392797960   -27.8213645581
 Xe     2.1356727287    16.2245824822   -17.8450983728
 Xe    11.2112492139     2.5104764685    -2.8114885496
          6
Energy: -8.52210402483166E-5 Kcal/mole
 Xe   -30.1052071564     8.7671691208   -12.9516554579
 Xe    24.3360866033    21.1995926403     4.5637153971
 Xe    -0.7333816047    25.5439617310    37.1566447505
 Xe     7.3757924052   -20.9875282453   -39.2307244516
 Xe     3.4418092452     5.6204032477   -40.5225670651
 Xe    37.6672685465    34.8036672610    -5.4579438622
          6
Energy: -6.761699631941372E-4 Kcal/mole
 Xe    16.8074836144    31.4004721344   -15.6394938748
 Xe    21.7817354504   -31.4161986834   -35.7384456863
 Xe   -33.4432347833    21.1339157450    13.7526270559
 Xe    15.6724157821    18.3723064046   -40.0007116254
 Xe   -32.8284184152    26.9555853462    -8.3631736788
 Xe    30.1054587348    36.3223937460   -11.4166124234
          6
Energy: -0.42834073050642124 Kcal/mole
 Xe    38.6008752724    26.7883912344   -10.1118479873
 Xe    12.4476995731   -19.0646820070   -14.4831681603
 Xe   -34.2761629629     9.0887220068    34.5260062167
 Xe   -20.9325952954    17.1835802621   -11.6243090811
 Xe    39.7480934863     2.0711776951   -26.6291437412
 Xe    38.6762401875    22.7084769222   -12.0055423630
          6
Energy: -0.43317743515299356 Kcal/mole
 Xe    41.3068295220    21.4152785279    -0.0716460456
 Xe    18.7165381357    -3.0202318923   -22.6851131103
 Xe   -21.5102421834   -17.2004860333    37.5677562315
 Xe     3.6720897476    31.2485622913     9.5996172606
 Xe    28.6814333914   -17.8140017284   -25.0067599500
 Xe    40.7882569271    21.4703465616    -4.4524948603
          6
Energy: -3.0307254003324373 Kcal/mole
 Xe    38.9131576820    20.6574949344     0.6693518750
 Xe    26.3888309788   -12.5144838103   -21.2237625321
 Xe    34.7658153312    20.7000547438     2.1790383424
 Xe    36.3530994407    24.2220660806     0.0477978690
 Xe    25.8501916516   -13.1574119421   -25.5604958061
 Xe    35.5220093632    20.4817437972    -2.1602238848
