          6
Energy: -2.1556417890930278E-4 Kcal/mole
 Xe    17.3268680929     5.6601693859     2.2963170064
 Xe    12.5913946979   -13.8322435350     0.5742995968
 Xe     9.3925536527    35.9680695981    22.3595154943
 Xe    39.4842447084    -0.9433096355   -16.2459579298
 Xe    29.0729986410   -26.5607743748     1.4719653936
 Xe    28.1913075704    21.3662201792   -29.8787369425
          6
Energy: -8.346350061322829E-5 Kcal/mole
 Xe    39.2553637472     5.1523944710     3.7457060388
 Xe    17.2273815260   -17.7154041074   -19.8958969732
 Xe     9.9433503338    30.1293386314    35.0180459453
 Xe    39.1431921583     9.5075293849   -33.5124793509
 Xe    14.9772783327     1.4112907694    24.8503045093
 Xe    19.4623092030     9.6674361752   -21.3404626310
          6
Energy: -2.3233625418009224E-5 Kcal/mole
 Xe    14.8411594597    14.2521741823   -20.9438176555
 Xe    27.6893325498    -8.9668971899   -26.2527157932
 Xe    -5.9885106612    35.9161731661    36.4981406631
 Xe   -13.0366127730    -0.2563197901   -34.6756665452
 Xe    41.1826192160   -31.4744556162    32.8766630006
 Xe    35.0456356751    29.4770539206    25.6810294094
          6
Energy: -4.535282461776083E-5 Kcal/mole
 Xe    11.7799564440    -9.5189773173   -23.7839253746
 Xe    -2.9295341187   -32.2751250819   -11.8352316942
 Xe   -16.2985780769    23.7134504086    33.2477399021
 Xe   -32.7721564325   -17.8094579128   -27.1686081326
 Xe    40.7529524343   -17.7276496412     1.0193578131
 Xe     8.8903741064    -1.6099819523     0.4608305054
          6
Energy: -0.3643316640958607 Kcal/mole
 Xe   -32.7490699662    38.1716797429   -27.3879889564
 Xe    37.7417001514   -20.7325670995    21.5624820343
 Xe   -11.7726504953    36.2583652524    16.7944489268
 Xe   -37.1739857659    37.7557833311   -25.5513723101
 Xe    32.9656338943   -32.8006840633    12.6960568016
 Xe    17.7697249169   -30.6833162655    -2.6115706590
          6
Energy: -0.4088058443877062 Kcal/mole
 Xe   -33.0353979660    35.3258546268   -28.6854977639
 Xe    31.4387396885   -21.2697714313    30.3726853650
 Xe   -27.7768952444    13.8091610214    39.3612411806
 Xe   -33.2977791328    34.1395366089   -24.2281477455
 Xe   -13.7857442026   -17.5840274166    11.4270173859
 Xe    27.8846223902   -32.8064199036    -2.4808981569
          6
Energy: -0.31055906656907883 Kcal/mole
 Xe   -29.2892571828    30.0314411686   -32.9319648815
 Xe    25.2394689640    35.4897236946    28.1529744887
 Xe    16.4139659085     2.6034610222    33.9433889532
 Xe   -31.5613773429    25.5676803642   -33.1756390870
 Xe   -24.0372557786    12.2506516335   -35.8624299591
 Xe    27.4798852761   -25.2883669003   -11.2526007874
          6
Energy: -0.7490954951992096 Kcal/mole
 Xe   -32.2345449466    32.1228676661   -32.8321166211
 Xe    31.0769697130    26.6892251202    40.0012257990
 Xe    32.3226710523    30.7059798874    40.1013360202
 Xe   -27.8973469456    30.3569926904   -33.8865693461
 Xe   -32.5525898782   -14.9887070293    11.4716315728
 Xe    38.1210799534   -39.9642743706   -16.2323425605
          6
Energy: -0.8631229277198779 Kcal/mole
 Xe   -28.2257286602    22.1446471371   -29.9487206339
 Xe    25.3868967903    36.3692648589    37.6542485448
 Xe    24.9310886726    40.0739563778    35.2893032414
 Xe   -32.5238050033    22.3237228044   -29.2436108182
 Xe   -26.2854411787     1.7292152449    14.2555506843
 Xe    -9.7318939005     5.5447737118   -29.8400239213
          6
Energy: -3.0308748923297335 Kcal/mole
 Xe   -26.8757905409    23.6835421125   -27.6028606150
 Xe    25.2386997819    36.4735760108    37.8294891451
 Xe    25.0766519114    40.0320497727    35.2179451317
 Xe   -30.6412419331    22.8644841622   -25.4381755368
 Xe   -27.0909026352    24.2954506021   -23.2400965045
 Xe   -27.1658120878    20.2059547663   -24.9031229866
