          6
Energy: -3.0308748923297335 Kcal/mole
 Xe   -26.8757905409    23.6835421125   -27.6028606150
 Xe    25.2386997819    36.4735760108    37.8294891451
 Xe    25.0766519114    40.0320497727    35.2179451317
 Xe   -30.6412419331    22.8644841622   -25.4381755368
 Xe   -27.0909026352    24.2954506021   -23.2400965045
 Xe   -27.1658120878    20.2059547663   -24.9031229866
