          6
Energy: -1.2990069043699854 Kcal/mole
 Xe   -19.5688512977   -39.1911279633    -2.0264026045
 Xe   -23.0245426113   -39.4942707237    -4.7606360354
 Xe   -26.6516574799     4.0883095919   -37.2518102700
 Xe   -14.9655188265    -7.1215581010    22.6530704680
 Xe   -14.2532079123    -5.4076908220    18.6452465555
 Xe   -25.5075557484     3.0560121813   -33.1124081400
