          6
Energy: -0.001402291696350375 Kcal/mole
 Xe    19.3849292907    26.8739944085    17.2407183467
 Xe    10.9942264544    23.2345479607   -21.6024027073
 Xe    25.1623967007   -24.8105610798    24.4183517418
 Xe    24.9131536420     1.9769720147   -20.5522792730
 Xe    -6.7521223347    16.8706164465    14.9298821630
 Xe    -6.0204613965    13.1825368624    27.3397511820
