          6
Energy: -2.972581928432011 Kcal/mole
 Ar    -5.4224681797    -5.3144103668     0.3374180931
 Ar    -4.1433662787    -4.4072720793     3.8037639279
 Ar    -6.9680986451    -6.9006990227     3.4101624813
 Ar    -4.8043617091    -9.0049639913     1.0945855054
 Ar    -3.5417640293    -8.0777909380     4.5644540628
 Ar    -1.9996121200    -6.5007026872     1.4651303655
