          6
Energy: -0.7351699953120467 Kcal/mole
 Ar    -2.8120263191    -3.2631829402     6.3253730669
 Ar     0.4550391387    -4.3042856498     3.5166905901
 Ar    -0.6938995341    -0.3656366108     7.2258017374
 Ar    -3.3762252844    -7.2512615786     0.8752364373
 Ar     2.8050520794     5.9362040800    -7.2834987130
 Ar     2.4566221129    -4.6246842653     0.4635966694
          6
Energy: -0.8293859687012929 Kcal/mole
 Ar     8.2764401724    -7.3663343411     3.9232674865
 Ar     7.0386234607    -5.0564594484    -1.1341330590
 Ar     1.4197260322     3.3755138643    -2.1426995078
 Ar     1.0667434289    -1.2716926280    -0.8648581074
 Ar     4.1964977323     0.7407534448    -3.4585105697
 Ar     3.8376444262    -0.5914398165     1.1889394413
          6
Energy: -0.0338624637843565 Kcal/mole
 Ar     1.1665623665     3.9925958009     8.5010418895
 Ar    -0.6832869256     4.5170790150    -5.3123244585
 Ar     7.2674289246     5.5541933725    -0.0577715379
 Ar     7.4468004594    -2.9598478177    -2.1382403573
 Ar    -5.1685618925     7.4531044017     7.8517470613
 Ar     0.2785602628    -2.8995641628    -4.3677853388
          6
Energy: -0.4372176624428712 Kcal/mole
 Ar     4.9193473472     3.3168577208     8.4922755752
 Ar     8.4953493422     1.8095234170     6.5729120402
 Ar     0.0245861201    -5.3547866790     3.7466027411
 Ar     5.2177558592    -7.6282416113    -7.3738538916
 Ar     7.1050742434    -3.0407040622    -0.2428121954
 Ar     4.3952601001    -4.1732276253    -5.9637787394
          6
Energy: -0.15925917856669583 Kcal/mole
 Ar     3.1754104977    -3.6284787998     3.1807573024
 Ar    -1.4109507409    -2.0468602289     6.0335852296
 Ar    -5.5586216412     6.8466635124    -1.6293831314
 Ar    -2.6457837158    -7.6839139128    -4.2889787281
 Ar     0.2952544441    -2.1615169248    -0.5930828953
 Ar     8.8255103740     2.3320728607     8.4533843586
          6
Energy: -0.33660457858081594 Kcal/mole
 Ar    -1.5332360151     1.4690880888     0.6346062627
 Ar    -8.1120278987     0.3718609889    -0.9890120587
 Ar    -8.4688126629    -5.2941751743     2.8519827410
 Ar    -8.3042184514     0.2421883133     8.6732038419
 Ar    -8.1959431628     4.2080449409     4.6771858073
 Ar    -5.7738155329     6.6422005329     6.0230437524
          6
Energy: -0.6140355543406073 Kcal/mole
 Ar    -9.0565524999     4.6202703711    -0.8166404691
 Ar    -7.3511713242     0.6629808337    -1.5826724779
 Ar    -6.8219693204     4.3585719193    -3.9581293940
 Ar     8.1805678187     8.6958896434     2.9678142318
 Ar    -8.5183160213    -1.8476081894     3.0055315750
 Ar     4.1414591771    -9.0436696619     0.5615527587
          6
Energy: -1.8025392558924092 Kcal/mole
 Ar    -9.0294045934    -3.9283272957     0.9052187390
 Ar    -5.3845677900    -3.7270752081    -1.0551649231
 Ar    -3.0208454797    -6.1055936659     1.4118237388
 Ar    -4.8237883047    -6.3600150921    -4.5875026253
 Ar    -6.5459872584    -7.2501616221    -0.9759305767
 Ar    -1.4099553900    -3.0652655070    -0.3451264343
          6
Energy: -2.735179102935633 Kcal/mole
 Ar    -5.1716057366    -5.0031844447     0.0957210645
 Ar    -4.2950778555    -4.5492075183     3.7740020687
 Ar    -7.3274677747    -6.6979204652     3.2055299252
 Ar    -4.7343044895    -8.6887039692     1.2686555594
 Ar    -3.3016928998    -8.3312238831     4.7937852157
 Ar    -1.8653358520    -6.4006927176     1.3502505131
          6
Energy: -2.972581928432011 Kcal/mole
 Ar    -5.4224681797    -5.3144103668     0.3374180931
 Ar    -4.1433662787    -4.4072720793     3.8037639279
 Ar    -6.9680986451    -6.9006990227     3.4101624813
 Ar    -4.8043617091    -9.0049639913     1.0945855054
 Ar    -3.5417640293    -8.0777909380     4.5644540628
 Ar    -1.9996121200    -6.5007026872     1.4651303655
