          6
Energy: -0.5049946857827583 Kcal/mole
 Kr     1.0808418664     6.0659208092     0.4314693744
 Kr    -0.8378149772     4.1166576716     3.9177750316
 Kr    -4.7088793914     2.0899072351    -7.3137093931
 Kr    -5.4028734685     7.1751443802    -0.5093184313
 Kr    -6.2619351398     0.1724029986    -2.8783768353
 Kr     2.9319311591    -4.0515953406     8.1551978192
          6
Energy: -1.1096951883300672 Kcal/mole
 Kr     2.0788855430    -1.1589223001     3.9619404220
 Kr     5.9665389536    -3.0128240752    -0.7230364768
 Kr    -6.1378170028    -3.1432528621     4.6532634749
 Kr    -0.5990533950    -0.3118924017    -5.7820828424
 Kr    -1.6515557155    -1.1815487534     1.5131618493
 Kr     2.5482868519     0.0415331250     0.4191318484
          6
Energy: -0.545330512796719 Kcal/mole
 Kr    -0.5771953302    -6.5864467357    -6.4496540111
 Kr     3.3891377713     6.3527834988     4.0981923264
 Kr    -1.7107621458     7.4037467141    -7.6212739420
 Kr     3.9841071596    -0.7766602687     3.5783327530
 Kr     0.6686241318     8.0698452260     0.2965528895
 Kr     0.9349286034     4.9310494970    -5.6391147863
          6
Energy: -1.9603752493777007 Kcal/mole
 Kr     3.5619980063     5.9671925824     1.6620815304
 Kr    -2.0356504902    -2.9109288967     2.8803013961
 Kr     0.6063201252     3.3830084724    -3.8430899972
 Kr    -1.1200759626     4.5911900762     0.3716775001
 Kr     3.9349011666     2.9438281506    -1.5570879814
 Kr     1.2522609980     1.6868509396     1.7977736280
          6
Energy: -1.813405496067746 Kcal/mole
 Kr    -7.9816694867    -2.9566706746     0.1105511212
 Kr    -4.1642333318    -2.3391942015    -1.3777723663
 Kr    -3.5848057928     6.4570284090    -1.0168235862
 Kr    -0.9949714306    -2.7821534369     1.7737747608
 Kr    -4.0139604506     1.8041331356    -1.4704356077
 Kr    -3.0234006389    -6.2156422493    -0.6013052690
          6
Energy: -3.3088341646539514 Kcal/mole
 Kr     6.2834390915    -6.9989382984    -0.1774595352
 Kr     3.3713025347    -3.9570525879     0.8865932873
 Kr     1.7028811926    -2.3121523682    -2.5336548095
 Kr     2.8405295447    -7.0333030937    -2.3386648875
 Kr     3.6709188024     0.2892918297     0.1360788001
 Kr     5.5278659422    -4.0764689486    -2.8032257381
          6
Energy: -3.2137274799261726 Kcal/mole
 Kr     0.4296061842    -3.4075378964    -2.6590135086
 Kr    -0.7505380042    -1.8033444703    -7.2054008988
 Kr     2.3055534942    -0.5009572205    -5.1335394079
 Kr     3.3493698437    -3.1116413122    -8.0193249329
 Kr     6.6288397614    -1.7919253010    -6.1361920441
 Kr     4.1293052503    -4.1390893128    -4.3645819141
          6
Energy: -3.2207056880854004 Kcal/mole
 Kr     1.3786652344    -1.2987597114     0.8120775863
 Kr    -0.4766070015     1.0329468019    -1.8791263862
 Kr    -2.7890945620    -1.1892990985    -4.5625093524
 Kr    -0.3620137597    -3.2071132034    -2.1189571578
 Kr     0.7803227146    -4.6495501371    -5.7210762706
 Kr     2.8974958543    -0.9412659559    -3.0688546113
          6
Energy: -3.8503790864723064 Kcal/mole
 Kr     4.0964108028    -6.7535939892    -0.0893950044
 Kr     0.8776641737    -4.7294798526     0.5960256258
 Kr     0.3106005855    -3.6065183042    -3.3256134476
 Kr     0.9203492701    -7.3848332981    -2.4240175227
 Kr     3.7219731640    -5.5024573776    -4.4175050059
 Kr     3.8043236558    -2.8875291910    -1.5361319944
          6
Energy: -4.028943652412683 Kcal/mole
 Kr     4.2304218290    -6.6261369328    -0.3529283283
 Kr     0.8183149241    -4.6206816391     0.5462425204
 Kr     0.3994426023    -3.5938048379    -3.3577566778
 Kr     0.8036208169    -7.4786287964    -2.3250218352
 Kr     3.8369348728    -5.5771582706    -4.2356796868
 Kr     3.8258699220    -2.7116786458    -1.3642945302
