          6
Energy: -0.06746206559876916 Kcal/mole
 Kr     4.7941336281    -4.1161349202     4.6523258072
 Kr     4.1597779006     5.4563775042     3.3691088334
 Kr     0.1969138914    -1.2933699369    -4.6542545907
 Kr    -3.2844201399     5.1901394977    -5.1296718589
 Kr    -4.0921949311    -2.8118387046     4.6406930603
 Kr    -3.0911202134     5.3059178518     4.7440247174
