          6
Energy: -4.028654574998449 Kcal/mole
 Kr    -0.2047063876     5.8479285283    -6.6483966328
 Kr    -2.9745677605     7.5875034864    -4.2683013955
 Kr    -1.9146924353     5.0974793148    -1.2633717045
 Kr     0.8596424254     3.3686688719    -3.6127472922
 Kr     0.8868209647     7.3868843856    -3.0651711005
 Kr    -3.0130882089     3.5757660912    -4.8461880841
