          6
Energy: -0.7713649781382271 Kcal/mole
 Kr     2.0975170467     1.7512910976    -0.0601583015
 Kr     5.3596756823    -1.3540538631    -0.3769228087
 Kr    -0.7977594764     6.7499861656     7.9017219522
 Kr    -1.3963314218     0.2954063996    -5.9620957598
 Kr     2.7628093150     3.7508953991     3.8033157892
 Kr     3.6759194672     3.2196742792    -5.7342048716
          6
Energy: -1.5319114252113546 Kcal/mole
 Kr     0.5198389582    -0.0526279805    -1.9574828744
 Kr    -1.8064396106    -4.5381554370    -1.5490452842
 Kr     1.2223672549     3.2447469635    -7.0251648024
 Kr    -0.4499258015    -0.8597390053     1.9151231331
 Kr     4.8691413925     4.0101426213    -5.0597434955
 Kr    -2.0167766961     3.0823444704    -3.5336749076
          6
Energy: -0.8822293735350684 Kcal/mole
 Kr    -1.3794110231    -4.3582260078    -1.4817930656
 Kr     2.6731847594    -8.0638304051    -1.4983466263
 Kr     1.3108324181    -2.4757564196    -6.3622425160
 Kr     0.6253858109    -0.8805176136    -1.8002716446
 Kr     1.5017080531    -6.2830687291     3.3926006739
 Kr     0.5894538417     7.2371406701     2.5109203674
          6
Energy: -2.92050656156783 Kcal/mole
 Kr    -7.9686860269     1.1720141065     1.0981265313
 Kr    -4.2781126130    -1.3348141864     1.9862920717
 Kr    -4.2936296168    -4.8798101941     0.2724569280
 Kr    -6.3513181762    -6.7448362556     3.3020527989
 Kr    -6.8704679998    -2.0534983713     4.4905307176
 Kr    -7.8687866151    -3.1297154390     0.9167001480
          6
Energy: -1.7477404701343526 Kcal/mole
 Kr    -4.4300877024     0.1366762566     6.1141097582
 Kr     1.3274590336    -2.2622002160    -4.6847505528
 Kr    -3.1017759416    -0.4313960637     1.9821397899
 Kr    -0.0414276834    -3.2904475801     2.6424494160
 Kr    -5.4271961923     2.8687829064     2.5340479623
 Kr    -4.2344754037     4.8076799737     5.7390931699
          6
Energy: -3.1884794505590235 Kcal/mole
 Kr    -3.6463621108    -3.4447593301     3.5483075370
 Kr     0.7178530886    -2.7624012254     4.0938974121
 Kr    -1.7312273241    -3.0517232686     7.5642298416
 Kr    -0.2427511998    -6.4235102939     6.1798708801
 Kr    -0.9560456122     0.3099210533     5.8629629379
 Kr     2.5848850228    -3.3699937239     7.9361254295
          6
Energy: -3.4292148765074075 Kcal/mole
 Kr     0.1381344030    -2.2033544356     4.6922221182
 Kr     0.1962153746    -5.0720760742     1.4912962440
 Kr    -1.7687105399    -1.4717265927     0.8999352425
 Kr    -3.4912276390    -3.7638978944     3.2949878453
 Kr    -1.7777007185     1.3573619173     3.8232821888
 Kr    -3.3381049936    -1.0393201784     6.5716768927
          6
Energy: -3.2820616670429503 Kcal/mole
 Kr    -0.6353813460    -6.7458372454     3.2652994572
 Kr    -3.2886626323    -3.6348209927     4.0051046965
 Kr    -0.2511754436    -1.0955849029     5.5512709860
 Kr    -3.1290613054    -1.6552198171     7.9844807912
 Kr    -0.3610659240    -4.6393221734     7.0400095065
 Kr    -3.3399437264    -7.0705477238     6.6959688375
          6
Energy: -3.961065323368199 Kcal/mole
 Kr     0.8690915187    -1.6980565057     4.4089819185
 Kr    -3.1634543094    -0.9301592371     4.6322580161
 Kr    -0.8659797159     0.2935215394     7.6944868431
 Kr    -3.3212279747    -2.9549906648     8.0735636205
 Kr     0.7844427022    -3.3625138461     7.9805432356
 Kr    -1.7209347279    -4.6850465733     4.9743115284
          6
Energy: -4.027907286143213 Kcal/mole
 Kr     0.8690915187    -1.6980565057     4.4089819185
 Kr    -3.1364962015    -1.1203891547     4.6428759312
 Kr    -0.7050616010     0.2298375131     7.6051837931
 Kr    -3.2030683671    -2.9155783538     8.2467460854
 Kr     0.8124919634    -3.4760703539     8.0524249966
 Kr    -1.5904294722    -4.8619805769     5.0849314878
