          4
Energy: -5.832596365660265 Kcal/mole
 H      1.9732675600     0.6665506745    -1.0372470990
 F      1.3883297825    -0.0201393151    -0.8723421126
 H      4.0494507328     1.0233159828    -1.1206256804
 F      3.3651769631     1.6165458352    -1.2646282856
