          4
Energy: -5.78181959090773 Kcal/mole
 H     -0.9513143319     4.2122608042    -1.5188037198
 F     -0.9690434610     4.8439079394    -0.8542763880
 H     -0.6944816194     2.1588460052    -1.5430266129
 F     -0.7549252890     2.6878677442    -2.2895998260
          4
Energy: -5.82108866014903 Kcal/mole
 H     -0.4970033456     4.5261090187    -1.2692818867
 F     -1.1639777746     5.1553485251    -1.2597030239
 H     -0.2079472386     2.6327980602    -2.0886462353
 F      0.3737856747     3.0903185481    -1.5472121943
          4
Energy: -5.824556943001426 Kcal/mole
 H     -0.9611390345     4.2636280539    -1.0426609137
 F     -0.8766971255     5.1086118709    -0.6965960165
 H     -0.1283011756     2.9450169238    -2.4819159057
 F     -0.8123914292     2.8072600961    -1.8869935735
          4
Energy: -5.824493221106081 Kcal/mole
 H     -0.9105316716     4.3635341347    -0.9322829110
 F     -1.4327042259     5.0537225393    -0.6291908628
 H     -0.7667920236     2.2744259151    -0.8952019622
 F     -0.2023833117     2.8755366271    -1.2964471712
          4
Energy: -5.8321728195087985 Kcal/mole
 H     -1.2968678026     4.1365459207    -0.7674981461
 F     -1.3438750815     4.9165255344    -0.2875907405
 H      0.0853632650     2.6080349029    -1.2345469363
 F     -0.7891828029     2.6842203585    -1.4996015562
          4
Energy: -5.82098028545272 Kcal/mole
 H     -1.2869542527     4.5131024500    -1.6232351500
 F     -1.5840769632     5.0621518839    -0.9515567939
 H      0.2049241675     3.0961839684    -2.0693628182
 F     -0.4525785416     3.4222958720    -2.6191175034
          4
Energy: -5.807921708178071 Kcal/mole
 H     -1.3708439255     4.7481846206    -1.7354778724
 F     -1.5818066241     5.3585409737    -1.0844411130
 H      0.0888528391     3.3172875530    -2.1274045138
 F     -0.6069342228     3.5795191503    -2.6640645121
          4
Energy: -5.8247737966155455 Kcal/mole
 H     -1.6348251533     4.9952733628    -2.3784178373
 F     -2.3169906049     5.6080687234    -2.3830159380
 H     -0.9120436972     3.3504313796    -3.5057807742
 F     -0.5736456901     3.7321894784    -2.7437856674
          4
Energy: -5.824178052699722 Kcal/mole
 H     -1.4334790833     4.9621753122    -2.4462832926
 F     -1.7174865285     5.7716139195    -2.7703788220
 H     -1.2924507045     2.9975514625    -3.1123581120
 F     -1.0205194875     3.3286465197    -2.3016063150
          4
Energy: -5.826377263143172 Kcal/mole
 H     -1.4635554408     4.8103558169    -2.7267811081
 F     -2.2785977104     4.9824058566    -3.1101789205
 H      0.6267485630     4.7402149390    -3.1621959357
 F      0.1794650803     4.5633370459    -2.3814650620
          4
Energy: -5.816789084345714 Kcal/mole
 H     -1.2856770534     3.9672540765    -2.5835154053
 F     -2.1876185524     4.0163545712    -2.4254658124
 H      0.4149378225     5.1935990793    -2.4727965768
 F      0.3892903620     4.3038112810    -2.6930438962
          4
Energy: -5.8213848944375854 Kcal/mole
 H     -1.4676366804     4.2216520800    -1.7077754192
 F     -2.2164889729     3.7897377119    -2.0136499404
 H      0.3848979744     4.9765808052    -2.3784792560
 F      0.0090519116     5.0257055428    -1.5434849463
          4
Energy: -5.818494350848823 Kcal/mole
 H     -1.2008894168     3.8008612720    -1.4005829703
 F     -1.9221784765     3.2379130752    -1.4615782174
 H      0.6325252521     4.3666697124    -2.3920904622
 F      0.2415664721     4.6705534772    -1.6202777324
          4
Energy: -5.817974846022537 Kcal/mole
 H     -0.8562605387     3.0109678502    -1.1469478549
 F     -1.7096799128     2.7022236106    -1.0156414709
 H      0.4047709792     3.7412232704    -2.6709247374
 F      0.6018267113     3.5691036094    -1.7920431408
          4
Energy: -5.826374656923576 Kcal/mole
 H     -0.3939811900     2.4506096135    -1.3731861778
 F     -1.1164776076     1.8954452214    -1.2698400396
 H      0.3462368738     4.3828797997    -0.8461414399
 F      0.7299984011     3.7256942182    -1.3577303390
          4
Energy: -5.825799732304631 Kcal/mole
 H     -0.5987424086     2.9746551929    -0.7790769927
 F     -1.4095021380     2.5611676035    -0.6668910990
 H      0.9182707190     3.3040537684    -2.2667807179
 F      0.8731017349     3.5917096777    -1.3972389761
          4
Energy: -5.828003361345793 Kcal/mole
 H     -0.5419655971     2.5962503334    -1.2302006257
 F     -1.3407979867     2.1883544287    -1.0394737418
 H      1.4934404741     2.2691399570    -0.9209295982
 F      1.1061700590     2.9892181633    -1.3361379826
          4
Energy: -5.831071967576008 Kcal/mole
 H     -0.1608101434     1.8876714075    -1.1521858404
 F     -0.9270340819     1.4426032816    -0.9161683848
 H      1.5430631459     2.7066866254    -0.2371745648
 F      1.3425365951     2.6866753690    -1.1317569545
          4
Energy: -5.818909817108818 Kcal/mole
 H     -0.1949070502     1.9070655615    -1.0716472817
 F     -0.9030883286     1.3472416455    -0.9105092665
 H      1.9496035315     1.8716052642    -1.0185617306
 F      1.3895503906     2.5699598931    -1.2173839918
          4
Energy: -5.826017468879286 Kcal/mole
 H     -2.378696E-40     1.7017647202    -0.7532182384
 F     -0.6577321001     1.1348044946    -0.4580124806
 H      2.0265486220     1.6116209302    -1.3442300718
 F      1.4827774378     2.3497899213    -1.3266676157
          4
Energy: -5.825101273397024 Kcal/mole
 H      0.2835793359     1.3579279544    -0.5559851820
 F     -0.4428221026     0.9272907236    -0.1985197632
 H      1.7152904522     2.8050836684    -0.0301205962
 F      1.6591707961     2.3344920628    -0.8151576175
          4
Energy: -5.830795492243283 Kcal/mole
 H      0.3147795888     1.0891326285    -0.4453306420
 F     -0.3723470852     0.7699630958     0.0712705034
 H      1.8842400592     2.4793480656    -0.3009781330
 F      1.6809686864     1.9389250263    -1.0133773803
          4
Energy: -5.827047853209876 Kcal/mole
 H      0.3760219638     0.9748338240    -0.4570377050
 F     -0.3791830448     0.4810877555    -0.2934247017
 H      2.0350652132     1.0293178912    -1.7680580910
 F      1.8313228464     1.6128199929    -1.0906340397
          4
Energy: -5.821764583139384 Kcal/mole
 H     -0.0815910641     1.3041124995    -0.5985099949
 F     -0.7216858766     0.8938718795    -0.0858012426
 H      1.9487997129     1.8309962179    -0.4982340756
 F      1.3465934001     2.0135496789    -1.1652504102
          4
Energy: -5.82729276737291 Kcal/mole
 H     -0.0678718494     1.5260127315     0.0364535238
 F     -0.8087388662     1.4368672386     0.5694245779
 H      0.8893881760     2.9465181727    -1.2212215775
 F      1.1607915667     2.0958980764    -1.0122367664
          4
Energy: -5.8181062165079425 Kcal/mole
 H     -0.1094881213     1.8433564663    -0.0615528385
 F     -0.7097152320     1.2426751739     0.2845662168
 H      1.7005839458     1.8437829979    -1.0464842345
 F      1.2000606658     2.5804699371    -0.8281775698
          4
Energy: -5.832189748738813 Kcal/mole
 H      0.1266021559     1.4037157424    -0.4444212712
 F     -0.6288599347     0.9852486194    -0.1361173684
 H      0.6845497841     3.2122648478    -1.3771810264
 F      1.2233051659     2.5154948021    -1.1219494803
          4
Energy: -5.830718537556777 Kcal/mole
 H     -0.2110917496     2.0450617602    -0.2689727675
 F     -0.9089059637     1.5865777663     0.1101535306
 H      0.3205153741     2.9575695662    -2.1075466174
 F      0.8166090690     2.8872772700    -1.3395368265
          4
Energy: -5.830296367183337 Kcal/mole
 H     -0.1647134006     1.6508591691    -0.7589067544
 F     -0.7893521963     1.1633733972    -0.2973084474
 H      0.9592527253     3.4235292473    -0.5519818315
 F      0.9565818332     2.8382282627    -1.2578887826
          4
Energy: -5.825291149466693 Kcal/mole
 H     -8.600826E-40     1.6175315604    -0.9048034692
 F     -0.7654951588     1.2090465084    -0.6058684218
 H      1.2830650107     3.2627947167    -0.4488618279
 F      1.3243514648     2.6581247496    -1.1370178129
          4
Energy: -5.8310621076814755 Kcal/mole
 H     -0.4215502551     2.0690066581    -0.6527092613
 F     -1.0015352211     1.3588707173    -0.6381015637
 H      1.0594639977     2.8581685814    -1.8978798360
 F      0.7729448823     3.1926531096    -1.0935690149
          4
Energy: -5.821238315852042 Kcal/mole
 H     -0.3005640530     2.1290536910    -0.7205077096
 F     -0.8116504232     1.3698655150    -0.7780666842
 H      1.7237645007     2.6906859621    -0.4984127125
 F      0.9960711177     3.2456957174    -0.5559931937
          4
Energy: -5.828925622327688 Kcal/mole
 H     -0.2093449616     2.0438058087    -0.5224800581
 F     -0.7083468056     1.2923660687    -0.6874784729
 H      1.4586527421     3.0099351767    -1.3170930566
 F      0.9665357194     3.2627516946    -0.5857971902
          4
Energy: -5.829331675982587 Kcal/mole
 H      0.2605654743     1.8868678651    -0.6612271421
 F     -0.2829824354     1.1805777545    -0.8770950402
 H      1.5101978664     3.2971929379    -1.6161208590
 F      1.3424497675     3.1926073055    -0.7206816255
          4
Energy: -5.829079681117491 Kcal/mole
 H      0.2628117156     1.9864571669    -1.0225738374
 F     -0.0849495794     1.1412094261    -1.0967852814
 H      2.0776593805     2.9995109681    -1.2653425159
 F      1.2666700726     3.3417658685    -1.0083465519
          4
Energy: -5.8209425347409365 Kcal/mole
 H      0.1769200678     2.1026864876    -0.9161497513
 F     -0.3552755188     1.3559358652    -0.9116369306
 H      2.0822559785     2.6724150861    -0.2831203471
 F      1.4746205519     3.2019598424    -0.7204423560
          4
Energy: -5.827881303802883 Kcal/mole
 H      0.4326322867     1.9999022041    -1.4662220371
 F     -0.1551386124     1.2990564461    -1.4011867103
 H      1.7226822386     3.0413827274    -0.1998718640
 F      1.5903307975     3.1868010674    -1.0955423404
          4
Energy: -5.830286883636461 Kcal/mole
 H      0.5176284204     1.9569086183    -1.5036049926
 F     -0.0872359474     1.2833432742    -1.6496797125
 H      1.0820538394     3.2374819436     0.0637571530
 F      1.4264904565     3.2091872803    -0.7856260519
          4
Energy: -5.829316099845471 Kcal/mole
 H      0.6271146816     1.8217847546    -1.5028154493
 F      0.0703342101     1.2243060925    -1.9198331406
 H      1.0187176756     3.9135951621    -1.4314281115
 F      1.4341629758     3.2371296872    -0.9724197632
          4
Energy: -5.810665481838271 Kcal/mole
 H      0.5930697283     2.0208017281    -1.6384405496
 F     -0.0192139237     1.4216926872    -1.9656500951
 H      0.8801894595     4.1530399192    -1.4085237725
 F      1.4425217140     3.4560724808    -1.2112731062
          4
Energy: -5.830653079464469 Kcal/mole
 H      0.3830673564     1.9349829572    -1.3032061045
 F      0.1577000505     1.1683255894    -1.7530227982
 H      1.9946538667     3.2529208821    -1.0955494463
 F      1.1775546186     3.2956478804    -0.6815298546
          4
Energy: -5.827468398757333 Kcal/mole
 H      0.6129172559     1.8643365928    -1.4263389143
 F     -0.0135727976     1.3419385758    -1.8452655484
 H      0.7083757291     3.7175209090    -0.4948404216
 F      1.3918621840     3.1147366871    -0.5967543444
          4
Energy: -5.828675144408351 Kcal/mole
 H      0.4182970889     1.5315310041    -0.9660521698
 F      0.2895226976     0.8182798751    -1.5278163402
 H      1.7713031359     3.1512147905    -0.6923505654
 F      1.0395962085     2.9228064184    -0.1890379509
          4
Energy: -5.826028849157922 Kcal/mole
 H      0.7450738353     1.4651947037    -1.0369803696
 F      0.6366117133     0.7765791594    -1.6327434100
 H      1.8803928233     3.1852100776    -0.8589848505
 F      1.2626725837     2.8710082632    -0.2584951125
          4
Energy: -5.829401989971018 Kcal/mole
 H      0.6841385821     1.4161967708    -1.1172794690
 F      0.7128683470     0.6292748462    -1.5871916792
 H      2.0218365244     2.7719548490    -0.2664487721
 F      1.1067186464     2.8304521893    -0.2715800997
          4
Energy: -5.822210690958514 Kcal/mole
 H      0.7478750566     1.3957636036    -1.1091340852
 F      0.6936661586     0.6754696005    -1.6740473038
 H      1.9560046812     3.1366884560    -0.8301511332
 F      1.2457922417     2.8472420017    -0.3274503863
          4
Energy: -5.825959683216638 Kcal/mole
 H      1.0110573001     1.3702262784    -1.2012688801
 F      0.5076379787     0.8322600326    -1.7472087167
 H      0.6979208192     2.9491619528     0.1336664186
 F      1.4975186147     2.5718879495    -0.1096372841
          4
Energy: -5.827421521220856 Kcal/mole
 H      0.9587219937     1.2376507046    -0.8488860249
 F      0.4447874776     0.6848035501    -1.3695781959
 H      1.4017512183     3.2590760080    -0.7269237599
 F      1.7291129579     2.5925249091    -0.1889340538
          4
Energy: -5.825516168257707 Kcal/mole
 H      1.1280376504     1.3612968597    -1.1045815703
 F      0.5953409579     0.6713790883    -1.3894266202
 H      1.3732126918     2.5822509109     0.5527649138
 F      1.8671920036     2.5938679632    -0.2197235868
          4
Energy: -5.825184232737286 Kcal/mole
 H      1.1687973688     1.2661292442    -0.9815148174
 F      0.5843264760     0.6855815086    -1.3843139016
 H      1.0618631862     2.9941653718     0.2092684002
 F      1.8231130084     2.5716608126    -0.0786163088
          4
Energy: -5.831025319240325 Kcal/mole
 H      1.0036356616     1.3303506484    -1.0885431122
 F      0.4668667762     0.7225241336    -1.5166962291
 H      1.8586293976     3.2022050437    -1.4543028308
 F      1.9432214994     2.6909674530    -0.6977519057
          4
Energy: -5.830927687633846 Kcal/mole
 H      1.0549668033     1.2650081033    -1.0102133652
 F      0.6200689855     0.5392110719    -1.3637265295
 H      1.9749400580     3.0584239172    -1.6352897061
 F      1.8882224668     2.7368506089    -0.7809129351
          4
Energy: -5.831865716837058 Kcal/mole
 H      0.9306440866     1.4168372986    -1.2916978263
 F      0.6251481319     0.5818478441    -1.5160944232
 H      2.6923534636     2.3321827666    -0.5740774259
 F      1.8939958921     2.7299250173    -0.7869513085
          4
Energy: -5.829089257811688 Kcal/mole
 H      0.8801214989     1.5333107619    -1.3855112846
 F      0.5372450881     0.7353584425    -1.6797847339
 H      2.7357372429     2.5333543995    -1.2312840049
 F      1.9108043794     2.8208453194    -0.9524942245
          4
Energy: -5.82320836504789 Kcal/mole
 H      0.9206894393     1.4597096651    -1.1576660629
 F      0.4905979051     0.6701287694    -1.3378667330
 H      2.7106210095     2.4912266608    -1.5401937003
 F      1.9811596507     2.7622576930    -1.0550985491
          4
Energy: -5.831044155341374 Kcal/mole
 H      1.0311323149     1.3791245223    -1.5583088164
 F      0.6652817098     0.5405711408    -1.6205226505
 H      2.8436011051     2.2874633729    -0.9666453174
 F      2.0826998200     2.6867465114    -1.2867878006
          4
Energy: -5.828826959896048 Kcal/mole
 H      1.1177930748     1.3568581004    -1.4916574247
 F      0.8392741050     0.4855702260    -1.5562610111
 H      2.8941778113     2.4640371620    -1.3523154633
 F      2.0305958175     2.7723950814    -1.3467897583
          4
Energy: -5.831722086041452 Kcal/mole
 H      1.1371978875     1.3599154666    -1.5944609646
 F      0.8169712848     0.5041769143    -1.5166441739
 H      2.7822048931     2.5444884113    -0.9991214161
 F      2.0524316062     2.7843494138    -1.4999074474
          4
Energy: -5.830598379469336 Kcal/mole
 H      1.1041453279     1.3481900463    -1.4838655694
 F      0.7506248338     0.5147081417    -1.6295370316
 H      2.7944439196     2.5347424895    -1.9791942233
 F      2.0645845997     2.7493589743    -1.4672038545
          4
Energy: -5.831639053026038 Kcal/mole
 H      1.1282612005     1.3439685102    -1.4993924178
 F      0.7954208375     0.5013133191    -1.6409499032
 H      2.9201666667     2.4504438648    -1.7114677189
 F      2.1072098210     2.7262647923    -1.3891123515
          4
Energy: -5.830857030832533 Kcal/mole
 H      1.2113748117     1.2984858391    -1.5826892538
 F      0.8877404126     0.4413623809    -1.6212788000
 H      2.9841790958     2.3542592234    -1.1683939891
 F      2.1639308629     2.6882780781    -1.4061191269
          4
Energy: -5.8322141147167486 Kcal/mole
 H      1.3758587153     1.2546428007    -1.7414798079
 F      0.9299918739     0.4563397320    -1.6721691285
 H      2.2471691121     2.7187659246    -0.4997996455
 F      2.1953361642     2.7094448115    -1.4152861076
          4
Energy: -5.8315200663853375 Kcal/mole
 H      1.2920652713     1.2792561342    -1.7174579220
 F      0.9131597961     0.4451991180    -1.6766102225
 H      2.3255072477     2.6708207506    -0.5000758508
 F      2.0783757136     2.7463838484    -1.3799083480
          4
Energy: -5.831792726365904 Kcal/mole
 H      1.3719208411     1.2485531800    -1.7145198438
 F      0.9430247198     0.4393719822    -1.6680127877
 H      1.9682366556     2.8434951689    -0.4536073235
 F      2.0951353202     2.7510082584    -1.3570628567
          4
Energy: -5.832016247388481 Kcal/mole
 H      1.4225134320     1.2321970727    -1.7884471657
 F      0.9511663071     0.4458827835    -1.7676932190
 H      1.9156674490     2.8336567279    -0.5112252597
 F      2.1483312025     2.7151742824    -1.3902693359
          4
Energy: -5.831867708929224 Kcal/mole
 H      1.4706585232     1.2042736332    -1.7933748147
 F      0.9575756482     0.4442506928    -1.7930691090
 H      1.7137995793     2.9625355535    -0.6614461977
 F      2.1639543740     2.7144660087    -1.4208612105
          4
Energy: -5.832056569528618 Kcal/mole
 H      1.4537339535     1.2332291340    -1.7939804013
 F      0.9497901594     0.4671723198    -1.8032868396
 H      1.6939413099     2.9923261021    -0.6426239661
 F      2.1420102619     2.7442799344    -1.4032791528
          4
Energy: -5.830987539951934 Kcal/mole
 H      1.5469297226     1.1641797167    -1.7061545345
 F      1.0021593973     0.4297356502    -1.7747563264
 H      1.4715587944     3.1747117870    -1.0306658139
 F      2.1804015827     2.7215217454    -1.3954255810
          4
Energy: -5.832454526454342 Kcal/mole
 H      1.5481788041     1.1652026850    -1.7322865197
 F      1.0020931364     0.4296813841    -1.7733700850
 H      1.4982122446     3.1697471099    -1.0776942313
 F      2.1934474801     2.7186155150    -1.4701445483
          4
Energy: -5.831582371260708 Kcal/mole
 H      1.5204549147     1.1839817153    -1.7749199818
 F      1.0112619260     0.4216136775    -1.7547587537
 H      1.5816323811     3.0812958919    -0.8730815764
 F      2.1639006084     2.7338755617    -1.4904565237
          4
Energy: -5.8322010239371025 Kcal/mole
 H      1.4560375307     1.2260155586    -1.8072297552
 F      1.0110990245     0.4254475563    -1.7624011994
 H      1.8351360957     2.9277323980    -0.6276053562
 F      2.1265439364     2.7515984383    -1.4790437266
          4
Energy: -5.832322916677185 Kcal/mole
 H      1.4765213552     1.2115267020    -1.7953115864
 F      1.0031168573     0.4267917889    -1.7641941057
 H      1.7073345343     3.0034445381    -0.7042898663
 F      2.1333235139     2.7475820843    -1.4749757906
          4
Energy: -5.832453840480866 Kcal/mole
 H      1.4631651413     1.2189041573    -1.8064275873
 F      1.0038253736     0.4264004319    -1.7636044275
 H      1.7641042212     2.9652192455    -0.6594898873
 F      2.1147806565     2.7564437894    -1.4806645621
          4
Energy: -5.83242004946959 Kcal/mole
 H      1.4649214365     1.2180176718    -1.8038662330
 F      1.0037322062     0.4264474579    -1.7637403015
 H      1.7568710000     2.9694243709    -0.6637041628
 F      2.1151643622     2.7562207172    -1.4804410046
          4
Energy: -5.832589395894672 Kcal/mole
 H      1.4628866764     1.2191473835    -1.8048822315
 F      1.0038401455     0.4263875293    -1.7636864051
 H      1.7536672654     2.9700884168    -0.6652914756
 F      2.1153343129     2.7561854911    -1.4803568013
