          4
Energy: -5.832589395894672 Kcal/mole
 H      1.4628866764     1.2191473835    -1.8048822315
 F      1.0038401455     0.4263875293    -1.7636864051
 H      1.7536672654     2.9700884168    -0.6652914756
 F      2.1153343129     2.7561854911    -1.4803568013
