          4
Energy: -5.832586106985161 Kcal/mole
 H      2.0681706840     0.5869223616    -1.0791530347
 F      1.3066910692     0.1219134794    -0.8674822153
 H      2.8267715404     2.5534218671    -0.9960963121
 F      3.2411537191     1.7974761896    -1.3087023623
