          4
Energy: -5.832564607439281 Kcal/mole
 H     -5.3434278270     2.4134665767    -5.1900041064
 F     -4.5039989259     2.7823889700    -5.2020202523
 H     -6.3174803068     0.6278723471    -5.7363562723
 F     -6.6810929601     1.3785456676    -5.3553518049
