          4
Energy: -5.832594876714381 Kcal/mole
 H      1.9707881300     0.6812669397    -1.0580469077
 F      1.3799113409    -0.0101473979    -0.9410006189
 H      4.0320081788     0.9976648359    -1.3701881875
 F      3.3653136464     1.6236394509    -1.3026368599
