          4
Energy: -5.832595994931694 Kcal/mole
 H      2.0223636430     0.5989209790    -1.2503526865
 F      1.5118648987    -0.0852510296    -0.9154068780
 H      1.9818096447     2.7001961104    -1.4202105978
 F      2.6282148374     2.1191340523    -1.7124711175
