          4
Energy: -5.832530151101935 Kcal/mole
 H     -0.9873869109     4.2266734651    -1.4647648796
 F     -1.1229299305     4.7941871337    -0.7573432756
 H     -0.7716848750     2.1679724432    -1.8475352545
 F     -0.7522396704     2.8611109716    -2.4475934722
