          4
Energy: -5.831871582828455 Kcal/mole
 H      1.9674416836     0.6797223600    -1.0815241188
 F      1.3800888621    -0.0100654616    -0.9397552071
 H      4.0369890270     1.0038586454    -1.2345645583
 F      3.3650494240     1.6233108836    -1.3098313800
          4
Energy: -5.832464056864694 Kcal/mole
 H      1.9675819772     0.6812503139    -1.0732451975
 F      1.3800814199    -0.0101465160    -0.9401943847
 H      4.0423809936     1.0012059052    -1.2694796529
 F      3.3679055540     1.6216603526    -1.3012311911
          4
Energy: -5.832440978435557 Kcal/mole
 H      1.9778121390     0.6809624625    -1.0163391614
 F      1.3795387334    -0.0101312461    -0.9432131184
 H      3.9869976596     1.0014102469    -1.5623643878
 F      3.3708435119     1.6216495127    -1.2856943327
          4
Energy: -5.832146011827888 Kcal/mole
 H      1.9808321856     0.6782667864    -1.0169860249
 F      1.3793785269    -0.0099882467    -0.9431788038
 H      4.0090408990     1.0102167931    -1.5278378575
 F      3.3733797221     1.6212189397    -1.2758453077
          4
Energy: -5.832205316820875 Kcal/mole
 H      1.9794136636     0.6799550441    -1.0126325788
 F      1.3794537763    -0.0100778049    -0.9434097441
 H      3.9880943987     1.0068857055    -1.5682475246
 F      3.3744908856     1.6213956462    -1.2737016683
          4
Energy: -5.832351202981101 Kcal/mole
 H      1.9780588553     0.6856917611    -1.0408207173
 F      1.3775621784    -0.0010591382    -0.9477296683
 H      4.0243792990     0.9866292717    -1.4240721971
 F      3.3756373907     1.6193494119    -1.2837576913
          4
Energy: -5.8324231857563404 Kcal/mole
 H      1.9743522595     0.6857157858    -1.0255751615
 F      1.3801208416    -0.0021851920    -0.9048678017
 H      4.0432987197     0.9971676505    -1.3255212432
 F      3.3739209169     1.6213387064    -1.2686630862
          4
Energy: -5.832525015795113 Kcal/mole
 H      1.9783902037     0.6867464550    -0.9959081543
 F      1.3799066380    -0.0022398666    -0.9064415678
 H      4.0122865761     0.9941803221    -1.4660254839
 F      3.3755660394     1.6214971772    -1.2612096609
          4
Energy: -5.832522938456066 Kcal/mole
 H      1.9787677195     0.6862238227    -0.9973921844
 F      1.3798866116    -0.0022121422    -0.9063628435
 H      4.0099403105     0.9928463882    -1.4691893528
 F      3.3756905034     1.6215679394    -1.2610418249
          4
Energy: -5.832360333825818 Kcal/mole
 H      1.9912320200     0.6789993492    -0.9612857778
 F      1.3792254093    -0.0018289005    -0.9082782049
 H      3.9521032590     1.0223313645    -1.6453376969
 F      3.3787586253     1.6200038295    -1.2516975623
          4
Energy: -5.832392447353982 Kcal/mole
 H      1.9838716873     0.6850128259    -0.9784426382
 F      1.3837688530    -0.0048832725    -0.9090959606
 H      3.9805084055     1.0131288631    -1.5466514478
 F      3.3687251273     1.6287337105    -1.2506094029
          4
Energy: -5.8319883125074625 Kcal/mole
 H      1.9869677231     0.6819685427    -0.9817123496
 F      1.3836046155    -0.0047217803    -0.9089225100
 H      3.9734960646     1.0165511053    -1.5844137883
 F      3.3675120976     1.6246541401    -1.2621047273
          4
Energy: -5.832194984180205 Kcal/mole
 H      2.0220503463     0.6451115088    -0.9034460459
 F      1.3844283484    -0.0138941987    -0.9096641804
 H      3.7789290748     1.1662731299    -1.9342811618
 F      3.3778334268     1.6167117327    -1.2435450716
          4
Energy: -5.832288440375521 Kcal/mole
 H      2.0314370808     0.6358255126    -0.8985961661
 F      1.3839304038    -0.0134015980    -0.9099214553
 H      3.7507116407     1.2203232040    -1.9813879037
 F      3.3793302965     1.6138445012    -1.2410461678
          4
Energy: -5.832495232962572 Kcal/mole
 H      2.0261105988     0.6411848356    -0.9085309627
 F      1.3842129613    -0.0136858977    -0.9093944373
 H      3.7816616517     1.1844703141    -1.9442275322
 F      3.3776884700     1.6157464141    -1.2430174396
          4
Energy: -5.832533081881024 Kcal/mole
 H      2.0206004315     0.6465381855    -0.9083865922
 F      1.3845052630    -0.0139698806    -0.9094020958
 H      3.7942195617     1.1665266147    -1.9253282396
 F      3.3770223018     1.6166982859    -1.2440200034
          4
Energy: -5.832330040853492 Kcal/mole
 H      2.0200208892     0.6470748093    -0.9145734810
 F      1.3845360064    -0.0139983472    -0.9090738957
 H      3.7995673117     1.1658205611    -1.9215535395
 F      3.3767386161     1.6167357404    -1.2442202425
          4
Energy: -5.832509431858057 Kcal/mole
 H      2.0207818298     0.6463621316    -0.9077470602
 F      1.3844956402    -0.0139605413    -0.9094360215
 H      3.7868327837     1.1703932733    -1.9323149457
 F      3.3774141534     1.6164931686    -1.2436493748
          4
Energy: -5.8323967904853475 Kcal/mole
 H      2.0195498472     0.6475489046    -0.9096714986
 F      1.3845609941    -0.0140234969    -0.9093339345
 H      3.8075409997     1.1545070157    -1.9087682681
 F      3.3763156303     1.6173358979    -1.2448984716
          4
Energy: -5.832447100391789 Kcal/mole
 H      2.0192748638     0.6442172493    -0.9124899182
 F      1.3876005817    -0.0204451706    -0.9024665025
 H      3.8182965286     1.1497746737    -1.8982859783
 F      3.3757450744     1.6175869377    -1.2454545329
          4
Energy: -5.832190503950642 Kcal/mole
 H      2.0173637645     0.6459100770    -0.9184596655
 F      1.3877019611    -0.0205349712    -0.9021498212
 H      3.8465175611     1.1281392176    -1.8615425921
 F      3.3742480138     1.6187346486    -1.2474036846
          4
Energy: -5.8321321545067235 Kcal/mole
 H      1.9882205547     0.6713316650    -0.9575180780
 F      1.3850726754    -0.0166634726    -0.8961639721
 H      3.9466894743     1.0292019955    -1.6501810742
 F      3.3689341253     1.6239830396    -1.2586159247
          4
Energy: -5.832471160851696 Kcal/mole
 H      1.9902349427     0.6719299262    -0.9652605599
 F      1.3872625306    -0.0169922710    -0.9133040738
 H      3.9440967100     1.0317061441    -1.6577166371
 F      3.3690716655     1.6238502003    -1.2582161805
          4
Energy: -5.832395676185513 Kcal/mole
 H      1.9957385946     0.6675908781    -0.9578718872
 F      1.3869705746    -0.0167620945    -0.9136960258
 H      3.9510626092     1.0456009642    -1.6625347450
 F      3.3733147225     1.6240344038    -1.2471901466
          4
Energy: -5.832479376201206 Kcal/mole
 H      1.9875250142     0.6724674886    -0.9853962228
 F      1.3874062861    -0.0170207874    -0.9122359234
 H      3.9937303378     1.0149502060    -1.5460305572
 F      3.3723012221     1.6237791979    -1.2561303798
          4
Energy: -5.832051557445652 Kcal/mole
 H      1.9895376412     0.6715239691    -0.9583303101
 F      1.3847112752    -0.0157765410    -0.9064450936
 H      3.9577008269     1.0372027023    -1.6478940273
 F      3.3742125044     1.6225987544    -1.2507267581
          4
Energy: -5.832521801768564 Kcal/mole
 H      1.9993266483     0.6696014561    -0.9551509807
 F      1.3871115433    -0.0117215198    -0.9117843142
 H      3.9344452264     1.0495853668    -1.6962858520
 F      3.3754461602     1.6219418826    -1.2481596837
          4
Energy: -5.832325983070234 Kcal/mole
 H      1.9780923855     0.6889607582    -0.9929156288
 F      1.3844119290    -0.0039821061    -0.9020162207
 H      3.9965455329     0.9988130198    -1.4831873907
 F      3.3669595363     1.6287498370    -1.2648068073
          4
Energy: -5.83229797074074 Kcal/mole
 H      1.9827105142     0.6850329978    -0.9924818483
 F      1.3841669479    -0.0037737475    -0.9020392318
 H      4.0012323529     1.0054281138    -1.4885299014
 F      3.3667109113     1.6283989215    -1.2645233995
          4
Energy: -5.832474828524312 Kcal/mole
 H      1.9814650115     0.6842287977    -0.9889491003
 F      1.3861859646    -0.0075034453    -0.8992921970
 H      4.0009964032     1.0089967224    -1.4988426479
 F      3.3667234279     1.6282096151    -1.2639763321
          4
Energy: -5.832488545261469 Kcal/mole
 H      1.9810484555     0.6843613335    -0.9906736881
 F      1.3862080619    -0.0075104760    -0.8992007116
 H      4.0006993494     1.0072179943    -1.4949134369
 F      3.3667391859     1.6283039725    -1.2641847677
          4
Energy: -5.832531373398865 Kcal/mole
 H      1.9753838172     0.6846081873    -1.0203789705
 F      1.3865085579    -0.0075235710    -0.8976249150
 H      4.0324027401     1.0025770773    -1.3335469131
 F      3.3650573943     1.6285501624    -1.2727448889
          4
Energy: -5.832479253671579 Kcal/mole
 H      1.9859227811     0.6770030636    -1.0044732217
 F      1.3903191242    -0.0113067020    -0.8932304665
 H      4.0354615437     0.9895293102    -1.3884647740
 F      3.3779010510     1.6160238876    -1.2619430648
          4
Energy: -5.832479163227049 Kcal/mole
 H      1.9871454180     0.6784659518    -0.9874937928
 F      1.3902542661    -0.0113843048    -0.8941311859
 H      4.0118712344     0.9894932623    -1.4763970041
 F      3.3791524624     1.6160257999    -1.2572784632
          4
Energy: -5.832072067088632 Kcal/mole
 H      2.0100756664     0.6596998714    -0.9315784795
 F      1.3882592590    -0.0129604928    -0.8896095636
 H      3.9285566145     1.0582493403    -1.7304452160
 F      3.3835721105     1.6123784488    -1.2438017926
          4
Energy: -5.832322591883553 Kcal/mole
 H      2.0172524721     0.6518084984    -0.9106472689
 F      1.3907887307    -0.0173242585    -0.8843122287
 H      3.8779110021     1.0946329025    -1.8163919306
 F      3.3862587432     1.6104483849    -1.2392425180
          4
Energy: -5.8324780904982845 Kcal/mole
 H      2.0222469126     0.6475149738    -0.8954382249
 F      1.3905237871    -0.0170964969    -0.8851190333
 H      3.8203143917     1.1404032910    -1.8877120129
 F      3.3815368489     1.6139485292    -1.2364684523
          4
Energy: -5.832485052259926 Kcal/mole
 H      2.0287333657     0.6413614230    -0.8866593131
 F      1.3901796958    -0.0167700653    -0.8855847343
 H      3.7871697094     1.1695297879    -1.9283154214
 F      3.3832950977     1.6124034359    -1.2343145353
          4
Energy: -5.832418267794537 Kcal/mole
 H      2.0241589437     0.6456513052    -0.8977749136
 F      1.3904223583    -0.0169976336    -0.8849950774
 H      3.8143824343     1.1436742477    -1.8940178844
 F      3.3818515255     1.6137750125    -1.2361339404
          4
Energy: -5.832405696186868 Kcal/mole
 H      2.0240168993     0.6458800101    -0.8911475837
 F      1.3904298934    -0.0170097659    -0.8853466419
 H      3.8017533736     1.1531509682    -1.9087201700
 F      3.3825214680     1.6132722944    -1.2353540181
          4
Energy: -5.832401368031242 Kcal/mole
 H      2.0297504324     0.6403731274    -0.8846979675
 F      1.3901257428    -0.0167176385    -0.8856887792
 H      3.7768992362     1.1717159146    -1.9355638879
 F      3.3838399226     1.6122874669    -1.2339300209
          4
Energy: -5.83232392752069 Kcal/mole
 H      2.0193813373     0.6501477742    -0.8996286628
 F      1.3906757993    -0.0172361609    -0.8848967403
 H      3.8475333311     1.1175391653    -1.8441698547
 F      3.3796227146     1.6123639220    -1.2300875188
          4
Energy: -5.8325038474006305 Kcal/mole
 H      2.0196267665     0.6498849488    -0.9009902353
 F      1.3906627798    -0.0172222186    -0.8848245120
 H      3.8423291003     1.1139320605    -1.8451934426
 F      3.3798987870     1.6125552706    -1.2300332199
          4
Energy: -5.832452638435086 Kcal/mole
 H      2.0122198978     0.6566429941    -0.9061477387
 F      1.3910556971    -0.0175807173    -0.8845509184
 H      3.8621629235     1.0900355867    -1.8089655989
 F      3.3788466485     1.6138229233    -1.2319550233
          4
Energy: -5.832430243571594 Kcal/mole
 H      2.0017881218     0.6651494213    -0.9263037695
 F      1.3916090787    -0.0180319636    -0.8834816875
 H      3.9196754968     1.0490650120    -1.7101380817
 F      3.3757957394     1.6159963176    -1.2371975947
          4
Energy: -5.832266880107056 Kcal/mole
 H      1.9986568511     0.6674278904    -0.9337119944
 F      1.3917751854    -0.0181528311    -0.8830886983
 H      3.9387039537     1.0264137345    -1.6569825490
 F      3.3747863238     1.6171979155    -1.2400173729
          4
Energy: -5.832496819332675 Kcal/mole
 H      1.9833088388     0.6727569122    -0.9987698769
 F      1.3925893620    -0.0184355234    -0.8796375280
 H      4.0419402635     0.9956982899    -1.3473585690
 F      3.3737341664     1.6175538565    -1.2596929195
          4
Energy: -5.832492224355008 Kcal/mole
 H      1.9785642193     0.6642809208    -1.0563848812
 F      1.3928410531    -0.0179858917    -0.8765811851
 H      4.0545035710     1.0374354768    -1.0681990713
 F      3.3730677120     1.6153397952    -1.2745016857
          4
Energy: -5.832530565289289 Kcal/mole
 H      1.9791831073     0.6684602918    -1.0374027367
 F      1.3928082225    -0.0182075977    -0.8775881440
 H      4.0561243392     1.0167750571    -1.1493176215
 F      3.3729817340     1.6164357827    -1.2701985341
          4
Energy: -5.832252280742978 Kcal/mole
 H      1.9824719495     0.6627824788    -1.0491358577
 F      1.3926337570    -0.0179064028    -0.8769657291
 H      4.0576975149     1.0361607678    -1.0829016002
 F      3.3728982807     1.6154074156    -1.2737217506
          4
Energy: -5.832460602217054 Kcal/mole
 H      1.9820225239     0.6636047250    -1.0474129644
 F      1.3926575980    -0.0179500211    -0.8770571246
 H      4.0618777277     1.0281849116    -1.0908214318
 F      3.3778432633     1.6125920445    -1.2681746234
          4
Energy: -5.832297244716642 Kcal/mole
 H      1.9789323958     0.6611580897    -1.0577263880
 F      1.3917555589    -0.0181430194    -0.8715480714
 H      4.0440296229     1.0412339382    -1.0219273413
 F      3.3704128035     1.6105812159    -1.2728716738
          4
Energy: -5.832334758702302 Kcal/mole
 H      1.9738702816     0.6620461297    -1.0391590728
 F      1.3892198700    -0.0272373347    -0.8843650100
 H      4.0526908835     1.0113093002    -1.1489721172
 F      3.3699533436     1.6121686488    -1.2661322420
          4
Energy: -5.832512895659647 Kcal/mole
 H      1.9797372513     0.6537811315    -1.0587406211
 F      1.3968865638    -0.0333623053    -0.8884233486
 H      4.0544682713     1.0297470792    -1.0848124719
 F      3.3698590573     1.6111905672    -1.2695357630
          4
Energy: -5.832448303452338 Kcal/mole
 H      1.9777143091     0.6601917885    -1.0383781984
 F      1.3969938763    -0.0337023759    -0.8895035281
 H      4.0539208906     1.0078990338    -1.1772931667
 F      3.3698880946     1.6123495556    -1.2646298758
          4
Energy: -5.832575762208592 Kcal/mole
 H      1.9827933548     0.6603724747    -1.0158354124
 F      1.3967244446    -0.0337119609    -0.8906993708
 H      4.0457847703     0.9939984887    -1.2953203310
 F      3.3703196970     1.6130869474    -1.2583688075
          4
Energy: -5.832561628500741 Kcal/mole
 H      1.9787343098     0.6656118598    -1.0219884791
 F      1.3914188007    -0.0250052154    -0.8841568853
 H      4.0508743495     0.9990131086    -1.2368386321
 F      3.3700497066     1.6128209334    -1.2614711265
          4
Energy: -5.832500702464415 Kcal/mole
 H      1.9808720473     0.6669150484    -1.0052561601
 F      1.3913053986    -0.0250743465    -0.8850444961
 H      4.0369754243     0.9872592469    -1.3272046677
 F      3.3707870124     1.6134444486    -1.2566774171
          4
Energy: -5.832557884580979 Kcal/mole
 H      1.9795477081     0.6656195566    -1.0184331190
 F      1.3913756518    -0.0250056237    -0.8843454889
 H      4.0476733970     0.9950347007    -1.2649397585
 F      3.3702195097     1.6130319787    -1.2599804266
          4
Energy: -5.832558766166585 Kcal/mole
 H      1.9782328678     0.6619191476    -1.0411693590
 F      1.3914454010    -0.0248093255    -0.8831393839
 H      4.0558899909     1.0158986148    -1.1443161829
 F      3.3697836384     1.6119251963    -1.2663792286
          4
Energy: -5.832569562808374 Kcal/mole
 H      1.9760642418     0.6630745042    -1.0441513580
 F      1.3915604416    -0.0248706145    -0.8829811958
 H      4.0518029252     1.0152327611    -1.1260998023
 F      3.3700004478     1.6119605183    -1.2673455655
          4
Energy: -5.832492875879325 Kcal/mole
 H      1.9749136453     0.6675108206    -1.0285212736
 F      1.3916214781    -0.0251059508    -0.8838103356
 H      4.0481868156     1.0088886085    -1.1792139265
 F      3.3664252988     1.6171610450    -1.2572836214
          4
Energy: -5.832403173031821 Kcal/mole
 H      1.9775442013     0.6663026869    -1.0235812877
 F      1.3914819332    -0.0250418621    -0.8840723905
 H      4.0499977306     1.0067768591    -1.2268162536
 F      3.3663292340     1.6172730685    -1.2547584280
          4
Energy: -5.8324253071875205 Kcal/mole
 H      1.9785901825     0.6639157899    -1.0307936826
 F      1.3914264463    -0.0249152428    -0.8836897896
 H      4.0503920743     1.0113954339    -1.1790156144
 F      3.3663083150     1.6170280638    -1.2572941414
          4
Energy: -5.832434271543946 Kcal/mole
 H      1.9748955293     0.6631139829    -1.0481642530
 F      1.3916224391    -0.0248727088    -0.8827683210
 H      4.0508115780     1.0335809075    -1.0801252663
 F      3.3662860613     1.6158511756    -1.2625400459
          4
Energy: -5.832484981224013 Kcal/mole
 H      1.9787221100     0.6573013283    -1.0583629475
 F      1.3914194478    -0.0245643609    -0.8822273038
 H      4.0498102854     1.0503834051    -1.0306244976
 F      3.3663391775     1.6149598420    -1.2651659473
          4
Energy: -5.832573601777199 Kcal/mole
 H      1.9771467655     0.6574259868    -1.0630597464
 F      1.3915030162    -0.0245709737    -0.8819781494
 H      4.0463935264     1.0529900584    -1.0149838375
 F      3.3665204287     1.6148215650    -1.2659956482
          4
Energy: -5.832491613492152 Kcal/mole
 H      1.9757912649     0.6612698318    -1.0526003853
 F      1.3915749224    -0.0247748808    -0.8825329944
 H      4.0510804013     1.0353975077    -1.0754093629
 F      3.3662718008     1.6157548092    -1.2627902137
          4
Energy: -5.832430070208602 Kcal/mole
 H      1.9756527284     0.6589051837    -1.0623061599
 F      1.3915822714    -0.0246494417    -0.8820181255
 H      4.0478336818     1.0482360282    -1.0300534416
 F      3.3664440318     1.6150737554    -1.2651962405
          4
Energy: -5.8324945358146465 Kcal/mole
 H      1.9801656817     0.6521201684    -1.0728898087
 F      1.3913428697    -0.0242895123    -0.8814566874
 H      4.0422692615     1.0770119319    -0.9580832440
 F      3.3667392114     1.6135472602    -1.2690140932
          4
Energy: -5.832409805161433 Kcal/mole
 H      1.9808080202     0.6490220693    -1.0816235502
 F      1.3913087951    -0.0241251653    -0.8809933826
 H      4.0344983835     1.1007079993    -0.9059638345
 F      3.3671514385     1.6122902385    -1.2717789074
          4
Energy: -5.832549540076911 Kcal/mole
 H      1.9792397714     0.6521807164    -1.0755026994
 F      1.3913919871    -0.0242927242    -0.8813180795
 H      4.0376433231     1.0787012365    -0.9454300634
 F      3.3669846068     1.6134576464    -1.2696853152
          4
Energy: -5.832535960762129 Kcal/mole
 H      1.9744252231     0.6547820097    -1.0720603039
 F      1.3864688479    -0.0205589736    -0.8742956531
 H      4.0377388876     1.0777025186    -0.9472819927
 F      3.3669795373     1.6135106261    -1.2695870746
          4
Energy: -5.832503547567569 Kcal/mole
 H      1.9787104576     0.6475423239    -1.0835056636
 F      1.3862415262    -0.0201749250    -0.8736885032
 H      4.0277615886     1.1105099011    -0.8810624825
 F      3.3675088099     1.6117702703    -1.2730998666
          4
Energy: -5.832517408717138 Kcal/mole
 H      1.9777175395     0.6491889590    -1.0810447159
 F      1.3862941982    -0.0202622752    -0.8738190508
 H      4.0306254840     1.1019549633    -0.8972869505
 F      3.3673568869     1.6122240900    -1.2722391960
          4
Energy: -5.8325101378629824 Kcal/mole
 H      1.9763602429     0.6493219742    -1.0844544711
 F      1.3863661996    -0.0202693314    -0.8736381712
 H      4.0271934918     1.1107728273    -0.8797723013
 F      3.3675389462     1.6117563227    -1.2731683077
          4
Energy: -5.832544443345569 Kcal/mole
 H      1.9747726972     0.6561972423    -1.0660939954
 F      1.3864504152    -0.0206340485    -0.8746121520
 H      4.0423754420     1.0694780698    -0.9717254864
 F      3.3667335788     1.6139469141    -1.2682904037
          4
Energy: -5.832545025995955 Kcal/mole
 H      1.9746155189     0.6566145978    -1.0701050348
 F      1.3882813825    -0.0196212876    -0.8705898527
 H      4.0364424787     1.0792856141    -0.9420045552
 F      3.3670483088     1.6134266466    -1.2698670305
          4
Energy: -5.8325573180122205 Kcal/mole
 H      1.9745186354     0.6583283207    -1.0644903000
 F      1.3882865220    -0.0197121966    -0.8708877014
 H      4.0407065297     1.0698163356    -0.9673415683
 F      3.3668221107     1.6139289699    -1.2685229605
          4
Energy: -5.832517542542803 Kcal/mole
 H      1.9737906990     0.6578502690    -1.0683266614
 F      1.3883251373    -0.0196868371    -0.8706841913
 H      4.0361299695     1.0720198466    -0.9535008003
 F      3.3670648867     1.6138120787    -1.2692571812
          4
Energy: -5.832580357343318 Kcal/mole
 H      1.9751277366     0.6592063917    -1.0594998899
 F      1.3882542106    -0.0197587762    -0.8711524312
 H      4.0432708185     1.0588882890    -0.9943137112
 F      3.3666860811     1.6145086775    -1.2670921506
          4
Energy: -5.832490188834072 Kcal/mole
 H      1.9733820305     0.6618462402    -1.0553468653
 F      1.3883468163    -0.0198988141    -0.8713727395
 H      4.0460238344     1.0544817566    -1.0106873714
 F      3.3665400400     1.6147424339    -1.2662235658
          4
Energy: -5.832563462631754 Kcal/mole
 H      1.9737587993     0.6654253897    -1.0401912040
 F      1.3883268295    -0.0200886797    -0.8721767123
 H      4.0486112410     1.0263748472    -1.0957375706
 F      3.3664027841     1.6162334405    -1.2617118492
          4
Energy: -5.832569927948157 Kcal/mole
 H      1.9743480249     0.6664998608    -1.0336138830
 F      1.3882955725    -0.0201456779    -0.8725256240
 H      4.0510820270     1.0224684318    -1.1220385876
 F      3.3662717146     1.6164406668    -1.2603166411
          4
Energy: -5.832576026117977 Kcal/mole
 H      1.9728522670     0.6669521749    -1.0370803095
 F      1.3883749190    -0.0201696721    -0.8723417381
 H      4.0494402920     1.0241398853    -1.1075486797
 F      3.3663588048     1.6163520001    -1.2610852972
          4
Energy: -5.832586340021635 Kcal/mole
 H      1.9733186722     0.6664399875    -1.0375596042
 F      1.3883501773    -0.0201425018    -0.8723163126
 H      4.0495697337     1.0233979443    -1.1110298361
 F      3.3663519382     1.6163913583    -1.2609006299
          4
Energy: -5.832590162486326 Kcal/mole
 H      1.9742695244     0.6682960127    -1.0260455129
 F      1.3882997368    -0.0202409596    -0.8729271086
 H      4.0504595447     1.0132853942    -1.1661246359
 F      3.3663047358     1.6169278057    -1.2579779781
          4
Energy: -5.832590120322607 Kcal/mole
 H      1.9732403128     0.6672377245    -1.0344903551
 F      1.3883543340    -0.0201848199    -0.8724791292
 H      4.0496616056     1.0208046401    -1.1221691627
 F      3.3663470646     1.6165289271    -1.2603097143
          4
Energy: -5.832594681777039 Kcal/mole
 H      1.9739955459     0.6674100568    -1.0309908796
 F      1.3883142707    -0.0201939617    -0.8726647683
 H      4.0503346647     1.0174443278    -1.1414515677
 F      3.3663113604     1.6167071839    -1.2592868273
          4
Energy: -5.832585411197613 Kcal/mole
 H      1.9734216400     0.6663162691    -1.0377089870
 F      1.3883447151    -0.0201359388    -0.8723083882
 H      4.0487805106     1.0236537300    -1.1161256349
 F      3.3652125169     1.6165279185    -1.2648670026
          4
Energy: -5.832592800976101 Kcal/mole
 H      1.9735344910     0.6656061336    -1.0402350696
 F      1.3883387286    -0.0200982678    -0.8721743854
 H      4.0495051170     1.0268273818    -1.1071296917
 F      3.3651740782     1.6163595636    -1.2653442166
          4
Energy: -5.832594839678791 Kcal/mole
 H      1.9730674228     0.6660925557    -1.0398749428
 F      1.3883635055    -0.0201240713    -0.8721934893
 H      4.0488894377     1.0259855443    -1.1076078711
 F      3.3652067385     1.6164042212    -1.2653188503
          4
Energy: -5.832595203554263 Kcal/mole
 H      1.9733600725     0.6663113161    -1.0379471354
 F      1.3883479811    -0.0201356761    -0.8722957550
 H      4.0492427568     1.0240643153    -1.1166156057
 F      3.3651879958     1.6165061379    -1.2648410108
          4
Energy: -5.832595954666715 Kcal/mole
 H      1.9731298108     0.6666602329    -1.0373126036
 F      1.3883601959    -0.0201541853    -0.8723294154
 H      4.0493282838     1.0232013771    -1.1205160993
 F      3.3651834588     1.6165519148    -1.2646340986
          4
Energy: -5.832596156075283 Kcal/mole
 H      1.9731677210     0.6666409219    -1.0372586095
 F      1.3883581849    -0.0201531609    -0.8723322797
 H      4.0493134261     1.0231506658    -1.1206544325
 F      3.3651842469     1.6165546049    -1.2646267604
          4
Energy: -5.832596362988454 Kcal/mole
 H      1.9732794431     0.6665486221    -1.0372467478
 F      1.3883522583    -0.0201482646    -0.8723329089
 H      4.0494452243     1.0233153439    -1.1206021391
 F      3.3651772553     1.6165458691    -1.2646295344
          4
Energy: -5.832596363045923 Kcal/mole
 H      1.9732803204     0.6665481336    -1.0372456702
 F      1.3883522117    -0.0201482387    -0.8723329661
 H      4.0494460789     1.0233151165    -1.1206071359
 F      3.3651772100     1.6165458812    -1.2646292693
          4
Energy: -5.832596363084008 Kcal/mole
 H      1.9732813924     0.6665473557    -1.0372451072
 F      1.3883521549    -0.0201481974    -0.8723329960
 H      4.0494474814     1.0233162049    -1.1206093161
 F      3.3651771356     1.6165458235    -1.2646291537
          4
Energy: -5.832596363086395 Kcal/mole
 H      1.9732815953     0.6665471829    -1.0372451072
 F      1.3883521441    -0.0201481882    -0.8723329960
 H      4.0494474814     1.0233162049    -1.1206093161
 F      3.3651771356     1.6165458235    -1.2646291537
          4
Energy: -5.832596363086907 Kcal/mole
 H      1.9732815953     0.6665471829    -1.0372451072
 F      1.3883521441    -0.0201481882    -0.8723329960
 H      4.0494476598     1.0233165072    -1.1206089188
 F      3.3651771261     1.6165458074    -1.2646291748
          4
Energy: -5.832596363088555 Kcal/mole
 H      1.9732818065     0.6665470247    -1.0372450168
 F      1.3883521329    -0.0201481799    -0.8723330008
 H      4.0494480216     1.0233168284    -1.1206093151
 F      3.3651771070     1.6165457904    -1.2646291537
          4
Energy: -5.832596363088726 Kcal/mole
 H      1.9732818291     0.6665470247    -1.0372449365
 F      1.3883521317    -0.0201481799    -0.8723330050
 H      4.0494479107     1.0233166039    -1.1206097124
 F      3.3651771128     1.6165458023    -1.2646291327
          4
Energy: -5.832596363088783 Kcal/mole
 H      1.9732818291     0.6665470017    -1.0372450324
 F      1.3883521317    -0.0201481786    -0.8723329999
 H      4.0494479107     1.0233166464    -1.1206095376
 F      3.3651771128     1.6165458001    -1.2646291419
          4
Energy: -5.832596363088783 Kcal/mole
 H      1.9732818334     0.6665470017    -1.0372450170
 F      1.3883521315    -0.0201481786    -0.8723330007
 H      4.0494479107     1.0233166464    -1.1206095376
 F      3.3651771128     1.6165458001    -1.2646291419
          4
Energy: -5.832596363088783 Kcal/mole
 H      1.9732818334     0.6665470017    -1.0372450170
 F      1.3883521315    -0.0201481786    -0.8723330007
 H      4.0494479107     1.0233167206    -1.1206092316
 F      3.3651771128     1.6165457961    -1.2646291582
          4
Energy: -5.832596363088896 Kcal/mole
 H      1.9732819483     0.6665469038    -1.0372450170
 F      1.3883521254    -0.0201481734    -0.8723330007
 H      4.0494479583     1.0233167206    -1.1206094581
 F      3.3651771103     1.6165457961    -1.2646291462
          4
Energy: -5.83259636308901 Kcal/mole
 H      1.9732819483     0.6665469038    -1.0372450170
 F      1.3883521254    -0.0201481734    -0.8723330007
 H      4.0494481494     1.0233169410    -1.1206094581
 F      3.3651771002     1.6165457844    -1.2646291462
          4
Energy: -5.83259636308901 Kcal/mole
 H      1.9732819483     0.6665469038    -1.0372450170
 F      1.3883521254    -0.0201481734    -0.8723330007
 H      4.0494481494     1.0233169410    -1.1206094581
 F      3.3651771002     1.6165457844    -1.2646291462
          4
Energy: -5.832596363089067 Kcal/mole
 H      1.9732819483     0.6665469038    -1.0372450170
 F      1.3883521254    -0.0201481734    -0.8723330007
 H      4.0494481046     1.0233169588    -1.1206091720
 F      3.3651771026     1.6165457835    -1.2646291613
          4
Energy: -5.832596363089067 Kcal/mole
 H      1.9732819425     0.6665469038    -1.0372450376
 F      1.3883521257    -0.0201481734    -0.8723329996
 H      4.0494481046     1.0233169588    -1.1206091720
 F      3.3651771026     1.6165457835    -1.2646291613
          4
Energy: -5.832596363089067 Kcal/mole
 H      1.9732819425     0.6665469038    -1.0372450376
 F      1.3883521257    -0.0201481734    -0.8723329996
 H      4.0494481083     1.0233169588    -1.1206091895
 F      3.3651771024     1.6165457835    -1.2646291604
          4
Energy: -5.832596363089067 Kcal/mole
 H      1.9732819425     0.6665469038    -1.0372450376