          6
Energy: -5.502311258908787 Kcal/mole
 Xe     6.7373956671    -0.4159256710    -1.6928022121
 Xe     5.5837170335    -0.9929108607    -5.8829213990
 Xe     5.1391468741     3.6733607571    -1.7878039000
 Xe     3.9651983125     3.1124400751    -5.9634960268
 Xe     8.1366605190     2.4347235095    -4.7490942840
 Xe     2.5879815005     0.2555389974    -2.9158640901
