          6
Energy: -1.0239620352160759 Kcal/mole
 Xe    -8.6351140823    -1.6490502395    -7.7642863689
 Xe     9.6533562649    -2.4212916419    -3.4055658429
 Xe    -4.8993814985    -4.7693398936    -5.9814890003
 Xe     6.1893678693     9.4256376211     2.1450111427
 Xe    -5.3805911109    -0.8797259455     4.2557249340
 Xe    -9.6745584921    -5.9313091169    -6.7104845732
          6
Energy: -0.5907036233801063 Kcal/mole
 Xe    -7.6178043653     1.3381890074    -9.6117884037
 Xe    -7.6447298445    -1.6082499006     5.2940054398
 Xe    10.6870362469     0.6802771084     3.7891456865
 Xe     6.6441124991     0.6570108363     0.6270485352
 Xe     3.0509369469    -9.1347716148    -0.0392886007
 Xe    -4.8278142962    -2.0470679572     9.4670860401
          6
Energy: -0.8831834406359859 Kcal/mole
 Xe   -10.5821101120    -6.4794051028     7.3398376673
 Xe    -1.4854320567    -8.4432754919    -5.9986355539
 Xe    -7.2055562484    -8.4842701100    10.6111051286
 Xe    -7.4343971816    -1.0997420153     5.5752805811
 Xe    -7.1260441810     6.3825703804     8.2445175394
 Xe    -5.6548097039     5.6427527266     4.2526603156
          6
Energy: -1.6497832147654015 Kcal/mole
 Xe    -2.5145316558    -5.0923821831    -3.2414261805
 Xe     7.2377775606    -6.8865084005     4.7926677900
 Xe    -5.1689393956    -7.3784221152    -0.3091652774
 Xe     3.1872046646   -10.0954658705     5.4096683850
 Xe    -0.9557310647    -6.5921091427     0.7022839505
 Xe    -8.1274925572    -0.5025846002     2.7851084412
          6
Energy: -1.3326100077024574 Kcal/mole
 Xe    -2.7774302323    -8.9919557258    -3.9651291491
 Xe     3.0150428027    -4.7144949421    -2.3216870378
 Xe     8.8507157840     7.5591216048     4.0675447475
 Xe     1.7111093021    -8.5153887530    -4.8457028606
 Xe     4.9917483913     6.4313198809     5.5922356844
 Xe     0.7633207933     2.5994750629     1.5611370656
          6
Energy: -2.3452782071631484 Kcal/mole
 Xe     0.4715891275    -1.5819549278     9.9824826861
 Xe    -2.3165696590    -6.9163000231    -6.2260177531
 Xe     4.2447652231    -0.5841578984     7.1529243817
 Xe    -7.0715048651    -7.5737473906    -4.3556625897
 Xe    -3.2413370192    -0.2440995620     8.2829726428
 Xe     0.2810574990     0.2010102348     5.6822447163
          6
Energy: -4.352937956062511 Kcal/mole
 Xe     0.7228589351     1.8721435328     8.5117825696
 Xe    -5.0778504248     8.1485916461     7.1940838231
 Xe    -1.6703699953     6.0552137354     9.3058306036
 Xe    -5.8384282510     5.0227310461    10.1210648199
 Xe    -3.5827309972     2.7138358941     7.4228984191
 Xe    -1.4822149168     5.8458310948     5.2977438198
          6
Energy: -4.715263358343251 Kcal/mole
 Xe    -4.6473554443     5.1381721062     9.5426706118
 Xe     0.3654910695     8.5854465447     6.3314756497
 Xe    -0.2388013710     5.9743947407    10.1461697809
 Xe    -3.2971518146     9.1597935933     9.4459707451
 Xe    -3.2326134341     6.5336945870     5.6649244305
 Xe     0.6882224548     4.4681844896     5.2991303104
          6
Energy: -5.233594855618093 Kcal/mole
 Xe    -4.0073460404     5.5235243597     9.8726667061
 Xe     0.9983456404     7.1608266151     5.2641387449
 Xe    -1.2582411557     3.7952909573     6.7985572535
 Xe     0.0889134917     7.3492438673     9.4644898540
 Xe    -3.0751347630     8.0329491981     6.3995860492
 Xe    -2.4868521758     5.5353121636     2.9225235477
          6
Energy: -5.326055290981111 Kcal/mole
 Xe    -3.9637946680     5.3327462582     9.8439886717
 Xe     1.1352020043     7.1922624557     5.1473846689
 Xe    -1.1571955034     3.8132884222     6.8225643437
 Xe     0.0522147785     7.1565965318     9.4290882451
 Xe    -3.0411839872     7.8601818523     6.3752706257
 Xe    -2.1791522810     5.3923907898     2.8414443293
