          6
Energy: -5.323740860946599 Kcal/mole
 Xe    -1.6800593311     4.5850428777    -5.9407755833
 Xe     0.3164644501     3.6196439670    -2.1340159760
 Xe    -3.5474081056     1.7492689624    -3.1676511108
 Xe    -2.7949205311     3.1015738894     0.9477204698
 Xe    -6.0541546204     4.6708859925    -5.2573738930
 Xe    -3.3201903023     6.1420887789    -2.1585946357
